TITLE = "Residual History"
VARIABLES = "Iteration", "Residual Norm"
ZONE T="N=199", I=27431, F=POINT
0 0.2448017216134188
1 0.23614956205823473
2 0.22973812625729342
3 0.22392673869449367
4 0.21841395213158868
5 0.2131060776129103
6 0.20796398885023348
7 0.20296766672895447
8 0.19810515182029118
9 0.1933683675763083
10 0.1887513086011024
11 0.18424916922007922
12 0.179857888929692
13 0.1755738991982701
14 0.171393974496009
15 0.16731514046366827
16 0.16333461495667437
17 0.15944976880426334
18 0.15565809882439227
19 0.1519572087020231
20 0.14834479505632897
21 0.1448186370194803
22 0.1413765882469081
23 0.1380165706468312
24 0.13473656934925124
25 0.13153462858481174
26 0.12840884824302803
27 0.12535738094601637
28 0.12237842951944104
29 0.11947024477407983
30 0.11663112353376168
31 0.11385940686141581
32 0.11115347844654976
33 0.10851176312596128
34 0.10593272551578166
35 0.1034148687376588
36 0.10095673322545412
37 0.09855689560155309
38 0.09621396761398159
39 0.09392659512715518
40 0.09169345716036548
41 0.08951326496910952
42 0.08738476116518232
43 0.08530671887208088
44 0.08327794091279876
45 0.08129725902750229
46 0.07936353311892967
47 0.07747565052363352
48 0.07563252530742486
49 0.07383309758356779
50 0.07207633285244228
51 0.07036122136152764
52 0.06868677748467492
53 0.06705203911974124
54 0.0654560671037359
55 0.06389794464471288
56 0.062376776769695864
57 0.06089168978798842
58 0.0594418307692614
59 0.05802636703586113
60 0.05664448566881153
61 0.05529539302702171
62 0.05397831427924147
63 0.052692492948329
64 0.051437190467424426
65 0.05021168574764299
66 0.0490152747569187
67 0.04784727010965337
68 0.046707000666836904
69 0.0455938111463228
70 0.044507061742956856
71 0.04344612775826915
72 0.04241039923945075
73 0.04139928062735246
74 0.040412190413245265
75 0.039448560804098504
76 0.0385078373961409
77 0.037589478856474755
78 0.03669295661251977
79 0.03581775454908207
80 0.03496336871283616
81 0.03412930702402572
82 0.033315088995190645
83 0.032520245456732745
84 0.03174431828914693
85 0.030986860161735616
86 0.03024743427764591
87 0.029525614125059725
88 0.028820983234385453
89 0.028133134941290376
90 0.027461672155431452
91 0.026806207134734406
92 0.02616636126508601
93 0.025541764845297833
94 0.02493205687721315
95 0.024336884860827353
96 0.023755904594293702
97 0.023188779978698348
98 0.022635182827480425
99 0.022094792680386978
100 0.02156729662184819
101 0.02105238910366377
102 0.020549771771896843
103 0.020059153297869906
104 0.01958024921316364
105 0.019112781748521268
106 0.018656479676560884
107 0.018211078158207033
108 0.0177763185927475
109 0.017351948471430224
110 0.01693772123451271
111 0.01653339613168201
112 0.0161387380857629
113 0.015753517559635836
114 0.015377510426287782
115 0.015010497841918435
116 0.014652266122032723
117 0.01430260662044305
118 0.013961315611116602
119 0.013628194172795526
120 0.01330304807632725
121 0.012985687674636847
122 0.012675927795283155
123 0.012373587635531588
124 0.01207849065988913
125 0.011790464500039182
126 0.011509340857121691
127 0.011234955406301579
128 0.010967147703572395
129 0.010705761094740786
130 0.010450642626542953
131 0.010201642959838938
132 0.00995861628483925
133 0.009721420238313738
134 0.009489915822737071
135 0.009263967327324181
136 0.009043442250912482
137 0.008828211226646234
138 0.00861814794842135
139 0.00841312909904911
140 0.008213034280098494
141 0.008017745943377655
142 0.007827149324016139
143 0.007641132375109515
144 0.007459585703891533
145 0.00728240250939729
146 0.00710947852158039
147 0.006940711941853819
148 0.00677600338501859
149 0.006615255822548088
150 0.00645837452719749
151 0.006305267018905522
152 0.006155843011960527
153 0.006010014363399161
154 0.005867695022610632
155 0.005728800982117253
156 0.005593250229504901
157 0.005460962700474086
158 0.005331860232989584
159 0.005205866522499975
160 0.00508290707820157
161 0.004962909180325566
162 0.004845801838421448
163 0.004731515750615982
164 0.004619983263821515
165 0.004511138334876489
166 0.004404916492592205
167 0.004301254800685224
168 0.00420009182157851
169 0.004101367581046302
170 0.00400502353368449
171 0.0039110025291907375
172 0.0038192487794304775
173 0.0037297078262722716
174 0.003642326510177627
175 0.0035570529395216144
176 0.003473836460634617
177 0.003392627628541463
178 0.0033133781783864784
179 0.0032360409975264125
180 0.003160570098276484
181 0.0030869205912934477
182 0.0030150486595820754
183 0.00294491153311029
184 0.0028764674640163216
185 0.0028096757023991824
186 0.0027444964726737507
187 0.0026808909504802336
188 0.002618821240134352
189 0.002558250352605976
190 0.0024991421840126113
191 0.0024414614946185846
192 0.002385173888323823
193 0.0023302457926363466
194 0.0022766444391109234
195 0.002224337844249796
196 0.002173294790848752
197 0.0021234848097809607
198 0.0020748781622098285
199 0.0020274458222171677
200 0.0019811594598404874
201 0.001935991424507574
202 0.0018919147288596588
203 0.001848903032956601
204 0.0018069306288501772
205 0.0017659724255211617
206 0.0017260039341708436
207 0.0016870012538576595
208 0.0016489410574706815
209 0.001611800578034515
210 0.0015755575953357275
211 0.0015401904228627575
212 0.001505677895054974
213 0.0014719993548511772
214 0.0014391346415304465
215 0.0014070640788407566
216 0.0013757684634069295
217 0.0013452290534105946
218 0.0013154275575389164
219 0.0012863461241932523
220 0.0012579673309517643
221 0.001230274174280878
222 0.0012032500594920074
223 0.001176878790931466
224 0.0011511445624062119
225 0.001126031947833237
226 0.0011015258921113797
227 0.0010776117022095037
228 0.0010542750384649952
229 0.0010315019060886258
230 0.001009278646871081
231 0.0009875919310862627
232 0.000966428749586643
233 0.0009457764060859255
234 0.0009256225096272596
235 0.0009059549672269712
236 0.0008867619766975914
237 0.000868032019638485
238 0.000849753854595672
239 0.000831916510384823
240 0.0008145092795720893
241 0.0007975217121132412
242 0.0007809436091430517
243 0.0007647650169146738
244 0.0007489762208838883
245 0.0007335677399363621
246 0.0007185303207512635
247 0.000703854932303988
248 0.0006895327604984061
249 0.0006755552029302797
250 0.000661913863776764
251 0.0006486005488091798
252 0.0006356072605270815
253 0.0006229261934102216
254 0.0006105497292859633
255 0.0005984704328088006
256 0.0005866810470508701
257 0.0005751744891994016
258 0.0005639438463595128
259 0.0005529823714597851
260 0.0005422834792576938
261 0.0005318407424442039
262 0.000521647887842296
263 0.0005116987927011164
264 0.0005019874810796712
265 0.0004925081203212253
266 0.00048325501761333075
267 0.0004742226166346332
268 0.00046540549428365205
269 0.000456798357489033
270 0.0004483960400989639
271 0.0004401934998484487
272 0.00043218581540119017
273 0.0004243681834658761
274 0.00041673591598409706
275 0.0004092844373883356
276 0.0004020092819291755
277 0.00039490609106789345
278 0.00038797061093500085
279 0.00038119868985281557
280 0.00037458627591949845
281 0.00036812941465168915
282 0.00036182424669007766
283 0.00035566700555775195
284 0.000349654015477783
285 0.0003437816892429609
286 0.0003380465261403159
287 0.00033244510992559484
288 0.0003269741068494255
289 0.0003216302637309483
290 0.0003164104060806006
291 0.0003113114362675328
292 0.0003063303317331114
293 0.00030146414324864053
294 0.00029670999321370484
295 0.000292065073998145
296 0.00028752664632317057
297 0.00028309203768134397
298 0.00027875864079545244
299 0.0002745239121137162
300 0.00027038537034094725
301 0.00026634059500433454
302 0.00026238722505449814
303 0.00025852295749720724
304 0.00025474554605882366
305 0.00025105279988190727
306 0.00024744258225164654
307 0.00024391280935089828
308 0.00024046144904408292
309 0.00023708651968849838
310 0.00023378608897273422
311 0.00023055827278087797
312 0.00022740123408249898
313 0.000224313181846526
314 0.00022129236998022478
315 0.00021833709629022713
316 0.00021544570146732792
317 0.00021261656809224138
318 0.00020984811966406623
319 0.00020713881964814262
320 0.0002044871705458095
321 0.00020189171298304643
322 0.0001993510248185325
323 0.0001968637202703916
324 0.0001944284490620835
325 0.00019204389558536363
326 0.00018970877808105883
327 0.00018742184783697525
328 0.0001851818884028763
329 0.00018298771482023947
330 0.00018083817287088217
331 0.00017873213833760236
332 0.00017666851628340616
333 0.00017464624034359473
334 0.00017266427203318477
335 0.00017072160006901502
336 0.00016881723970525107
337 0.0001669502320834773
338 0.0001651196435960075
339 0.00016332456526223118
340 0.00016156411211851055
341 0.00015983742262091176
342 0.0001581436580598838
343 0.00015648200198855702
344 0.00015485165966141903
345 0.0001532518574874342
346 0.00015168184249246037
347 0.00015014088179477332
348 0.0001486282620916568
349 0.00014714328915705328
350 0.0001456852873500191
351 0.00014425359913476193
352 0.00014284758461089846
353 0.0001414666210535205
354 0.00014011010246513077
355 0.000138777439136718
356 0.00013746805721797978
357 0.00013618139830001293
358 0.00013491691900474072
359 0.0001336740905861408
360 0.00013245239853876446
361 0.0001312513422174749
362 0.00013007043446471866
363 0.0001289092012472018
364 0.0001277671813012013
365 0.0001266439257876301
366 0.00012553899795274376
367 0.0001244519727998397
368 0.00012338243676763015
369 0.0001223299874174536
370 0.00012129423312705485
371 0.00012027479279376222
372 0.00011927129554321696
373 0.00011828338044725971
374 0.00011731069624797305
375 0.00011635290108879314
376 0.00011540966225387325
377 0.00011448065591191148
378 0.00011356556686895094
379 0.00011266408832676987
380 0.00011177592164715785
381 0.0001109007761229603
382 0.00011003836875550171
383 0.0001091884240376715
384 0.00010835067374209359
385 0.00010752485671713855
386 0.00010671071868606047
387 0.00010590801205338877
388 0.00010511649571471177
389 0.00010433593487478693
390 0.00010356610086776231
391 0.00010280677098303199
392 0.00010205772829747424
393 0.00010131876151041772
394 0.00010058966478448486
395 9.987023759044148e-05
396 9.91602845568572e-05
397 9.845961532256912e-05
398 9.77680443964696e-05
399 9.70853910173437e-05
400 9.641147902043792e-05
401 9.574613670711141e-05
402 9.508919671872207e-05
403 9.444049591235485e-05
404 9.379987524264537e-05
405 9.316717964459942e-05
406 9.254225792247e-05
407 9.1924962639237e-05
408 9.131515001057959e-05
409 9.071267980268189e-05
410 9.011741523066625e-05
411 8.952922286338599e-05
412 8.894797252729988e-05
413 8.837353721623454e-05
414 8.780579300192188e-05
415 8.724461894813842e-05
416 8.668989702676517e-05
417 8.614151203675525e-05
418 8.559935152517906e-05
419 8.506330571086433e-05
420 8.453326741029172e-05
421 8.400913196492323e-05
422 8.349079717239749e-05
423 8.297816321750078e-05
424 8.247113260734484e-05
425 8.196961010665179e-05
426 8.147350267639241e-05
427 8.098271941340406e-05
428 8.049717149181359e-05
429 8.001677210678431e-05
430 7.954143641898517e-05
431 7.907108150188501e-05
432 7.860562628978598e-05
433 7.814499152699384e-05
434 7.768909971980587e-05
435 7.723787508902795e-05
436 7.679124352390741e-05
437 7.63491325374872e-05
438 7.591147122324132e-05
439 7.547819021410739e-05
440 7.504922163981985e-05
441 7.46244990893057e-05
442 7.420395757121128e-05
443 7.378753347710403e-05
444 7.337516454449597e-05
445 7.29667898227456e-05
446 7.256234963853568e-05
447 7.21617855629578e-05
448 7.176504037840537e-05
449 7.137205804893116e-05
450 7.09827836887609e-05
451 7.059716353340802e-05
452 7.021514491075744e-05
453 6.983667621418358e-05
454 6.946170687427917e-05
455 6.909018733343135e-05
456 6.87220690207825e-05
457 6.835730432672454e-05
458 6.799584657937736e-05
459 6.763765002127138e-05
460 6.728266978669836e-05
461 6.693086187957639e-05
462 6.658218315220526e-05
463 6.62365912845427e-05
464 6.589404476380069e-05
465 6.555450286532917e-05
466 6.521792563286404e-05
467 6.488427386058613e-05
468 6.455350907504249e-05
469 6.422559351709412e-05
470 6.390049012595823e-05
471 6.357816252127597e-05
472 6.325857498844025e-05
473 6.294169246202161e-05
474 6.262748051081633e-05
475 6.231590532294689e-05
476 6.20069336921707e-05
477 6.170053300256004e-05
478 6.139667121619189e-05
479 6.10953168591672e-05
480 6.0796439009084137e-05
481 6.050000728206601e-05
482 6.0205991821279325e-05
483 5.991436328413159e-05
484 5.962509283164104e-05
485 5.933815211628283e-05
486 5.905351327237304e-05
487 5.877114890360061e-05
488 5.849103207401219e-05
489 5.8213136297923116e-05
490 5.7937435528962346e-05
491 5.766390415185829e-05
492 5.7392516972081086e-05
493 5.712324920730144e-05
494 5.6856076478437447e-05
495 5.6590974800671666e-05
496 5.632792057583469e-05
497 5.606689058334893e-05
498 5.580786197275863e-05
499 5.5550812256095475e-05
500 5.5295719299943635e-05
501 5.504256131815661e-05
502 5.479131686445574e-05
503 5.454196482608622e-05
504 5.429448441636679e-05
505 5.404885516793586e-05
506 5.380505692705638e-05
507 5.356306984630699e-05
508 5.332287437908873e-05
509 5.308445127292084e-05
510 5.284778156480007e-05
511 5.261284657382198e-05
512 5.2379627896511594e-05
513 5.214810740160717e-05
514 5.191826722431436e-05
515 5.16900897608247e-05
516 5.14635576635923e-05
517 5.1238653837011374e-05
518 5.1015361430936055e-05
519 5.0793663837570525e-05
520 5.057354468643873e-05
521 5.035498783890458e-05
522 5.0137977384993073e-05
523 4.9922497638637974e-05
524 4.970853313354489e-05
525 4.949606861887956e-05
526 4.928508905549217e-05
527 4.907557961174382e-05
528 4.8867525660488755e-05
529 4.866091277398953e-05
530 4.8455726721411844e-05
531 4.825195346475713e-05
532 4.804957915570752e-05
533 4.7848590131600806e-05
534 4.764897291265426e-05
535 4.745071419881123e-05
536 4.725380086584804e-05
537 4.705821996306594e-05
538 4.686395870979461e-05
539 4.667100449221398e-05
540 4.647934486132691e-05
541 4.628896752896356e-05
542 4.609986036581471e-05
543 4.591201139841987e-05
544 4.572540880657332e-05
545 4.554004092039883e-05
546 4.535589621844797e-05
547 4.517296332481007e-05
548 4.4991231006169804e-05
549 4.48106881704935e-05
550 4.463132386359171e-05
551 4.4453127267655706e-05
552 4.4276087698953345e-05
553 4.410019460481217e-05
554 4.392543756211625e-05
555 4.375180627561086e-05
556 4.3579290574544383e-05
557 4.340788041244042e-05
558 4.323756586289221e-05
559 4.306833711969829e-05
560 4.2900184493998264e-05
561 4.2733098412134506e-05
562 4.256706941453991e-05
563 4.240208815345336e-05
564 4.2238145391012595e-05
565 4.207523199860148e-05
566 4.1913338953761485e-05
567 4.175245733924221e-05
568 4.159257834140241e-05
569 4.143369324871288e-05
570 4.1275793449605207e-05
571 4.1118870431860285e-05
572 4.096291578020623e-05
573 4.080792117536696e-05
574 4.06538783927578e-05
575 4.0500779300251346e-05
576 4.034861585792366e-05
577 4.019738011581943e-05
578 4.0047064213087794e-05
579 3.989766037628163e-05
580 3.9749160918718416e-05
581 3.960155823840316e-05
582 3.9454844817255213e-05
583 3.930901322027447e-05
584 3.916405609332863e-05
585 3.9019966162778146e-05
586 3.887673623423624e-05
587 3.873435919134709e-05
588 3.859282799427349e-05
589 3.8452135679651234e-05
590 3.831227535812177e-05
591 3.817324021433993e-05
592 3.803502350590844e-05
593 3.789761856190989e-05
594 3.776101878155782e-05
595 3.762521763466352e-05
596 3.7490208659346015e-05
597 3.735598546111759e-05
598 3.7222541713103544e-05
599 3.708987115377511e-05
600 3.6957967587092994e-05
601 3.682682488103208e-05
602 3.669643696679754e-05
603 3.656679783819522e-05
604 3.643790155065026e-05
605 3.630974222055322e-05
606 3.6182314024075976e-05
607 3.6055611196636094e-05
608 3.5929628032395404e-05
609 3.580435888308983e-05
610 3.567979815709569e-05
611 3.5555940319208085e-05
612 3.5432779889829436e-05
613 3.5310311444064514e-05
614 3.518852961076034e-05
615 3.506742907276621e-05
616 3.4947004564891294e-05
617 3.482725087439703e-05
618 3.4708162839787756e-05
619 3.4589735350275074e-05
620 3.447196334527118e-05
621 3.4354841813503626e-05
622 3.423836579229795e-05
623 3.4122530367724114e-05
624 3.400733067318728e-05
625 3.3892761888944526e-05
626 3.377881924216653e-05
627 3.3665498005458605e-05
628 3.355279349711611e-05
629 3.3440701080081716e-05
630 3.33292161612273e-05
631 3.321833419177051e-05
632 3.310805066546841e-05
633 3.299836111903436e-05
634 3.288926113148649e-05
635 3.278074632323215e-05
636 3.267281235572745e-05
637 3.256545493145954e-05
638 3.2458669792557145e-05
639 3.235245272149316e-05
640 3.2246799539759726e-05
641 3.214170610719092e-05
642 3.203716832255474e-05
643 3.1933182122217203e-05
644 3.1829743480008234e-05
645 3.1726848406707193e-05
646 3.16244929499657e-05
647 3.152267319338581e-05
648 3.1421385256233256e-05
649 3.132062529331893e-05
650 3.122038949448371e-05
651 3.112067408374728e-05
652 3.1021475319538185e-05
653 3.092278949405783e-05
654 3.082461293302404e-05
655 3.072694199497483e-05
656 3.062977307113743e-05
657 3.0533102585010216e-05
658 3.0436926992336297e-05
659 3.0341242779892208e-05
660 3.024604646634134e-05
661 3.015133460067323e-05
662 3.0057103762771528e-05
663 2.996335056245295e-05
664 2.9870071639832752e-05
665 2.9777263664209084e-05
666 2.96849233343585e-05
667 2.9593047377905238e-05
668 2.950163255116681e-05
669 2.9410675638690318e-05
670 2.9320173452963314e-05
671 2.9230122834653276e-05
672 2.9140520650963974e-05
673 2.9051363797104905e-05
674 2.8962649194549167e-05
675 2.8874373791818033e-05
676 2.878653456321754e-05
677 2.8699128509305523e-05
678 2.8612152656440813e-05
679 2.8525604056201776e-05
680 2.8439479785706322e-05
681 2.8353776946680763e-05
682 2.8268492665648096e-05
683 2.818362409335459e-05
684 2.809916840567001e-05
685 2.8015122800625553e-05
686 2.7931484501785243e-05
687 2.784825075457698e-05
688 2.776541882909416e-05
689 2.7682986017244026e-05
690 2.7600949634150463e-05
691 2.751930701728334e-05
692 2.7438055526491947e-05
693 2.735719254375592e-05
694 2.7276715472643477e-05
695 2.7196621738461525e-05
696 2.7116908787921557e-05
697 2.7037574089050968e-05
698 2.6958615130278113e-05
699 2.6880029421434507e-05
700 2.6801814492705204e-05
701 2.6723967894400863e-05
702 2.6646487197335852e-05
703 2.656936999208757e-05
704 2.6492613889083908e-05
705 2.6416216517888738e-05
706 2.6340175528122126e-05
707 2.626448858815145e-05
708 2.618915338556053e-05
709 2.611416762635608e-05
710 2.603952903552322e-05
711 2.596523535670124e-05
712 2.589128435107758e-05
713 2.5817673798824333e-05
714 2.574440149722079e-05
715 2.567146526184587e-05
716 2.5598862925804297e-05
717 2.5526592339234563e-05
718 2.54546513697937e-05
719 2.5383037902569525e-05
720 2.5311749838815333e-05
721 2.524078509720073e-05
722 2.5170141612588316e-05
723 2.5099817336637784e-05
724 2.5029810236983277e-05
725 2.4960118297527974e-05
726 2.489073951824629e-05
727 2.4821671914845735e-05
728 2.4752913518769307e-05
729 2.4684462376992918e-05
730 2.4616316551982834e-05
731 2.4548474121187585e-05
732 2.4480933177579927e-05
733 2.441369182883973e-05
734 2.4346748197355597e-05
735 2.428010042088933e-05
736 2.4213746650751704e-05
737 2.414768505376671e-05
738 2.4081913809914526e-05
739 2.4016431114678687e-05
740 2.3951235176319928e-05
741 2.38863242177581e-05
742 2.3821696475628344e-05
743 2.3757350199887108e-05
744 2.3693283654487568e-05
745 2.3629495116263272e-05
746 2.3565982875935804e-05
747 2.3502745237042774e-05
748 2.3439780516388135e-05
749 2.3377087043383945e-05
750 2.331466316040075e-05
751 2.3252507222951497e-05
752 2.3190617598443036e-05
753 2.3128992667204752e-05
754 2.3067630821898144e-05
755 2.3006530467406488e-05
756 2.294569002067478e-05
757 2.2885107910778226e-05
758 2.282478257868804e-05
759 2.2764712477560163e-05
760 2.2704896071403908e-05
761 2.2645331836794084e-05
762 2.2586018261215175e-05
763 2.2526953844330493e-05
764 2.246813709611062e-05
765 2.2409566538230955e-05
766 2.2351240703847943e-05
767 2.229315813653974e-05
768 2.223531739123821e-05
769 2.217771703331009e-05
770 2.2120355639189594e-05
771 2.2063231796006596e-05
772 2.2006344101266553e-05
773 2.1949691162852218e-05
774 2.1893271599402516e-05
775 2.1837084039371332e-05
776 2.178112712147516e-05
777 2.172539949521841e-05
778 2.1669899819123392e-05
779 2.1614626762286426e-05
780 2.155957900363206e-05
781 2.1504755231336185e-05
782 2.1450154144016815e-05
783 2.139577444924947e-05
784 2.1341614864505777e-05
785 2.1287674116423942e-05
786 2.123395094132769e-05
787 2.118044408444563e-05
788 2.1127152300394118e-05
789 2.1074074353062585e-05
790 2.1021209014862758e-05
791 2.0968555067790355e-05
792 2.0916111302423882e-05
793 2.0863876518243824e-05
794 2.081184952316164e-05
795 2.076002913420972e-05
796 2.0708414176743197e-05
797 2.0657003484846633e-05
798 2.0605795900678788e-05
799 2.0554790275047757e-05
800 2.0503985467139993e-05
801 2.045338034407872e-05
802 2.0402973781690092e-05
803 2.0352764663168255e-05
804 2.030275188015762e-05
805 2.0252934332458718e-05
806 2.0203310927336737e-05
807 2.0153880580133522e-05
808 2.0104642214200377e-05
809 2.0055594759830446e-05
810 2.0006737155741984e-05
811 1.9958068347966224e-05
812 1.990958729000209e-05
813 1.9861292942631082e-05
814 1.981318427428844e-05
815 1.9765260260759417e-05
816 1.971751988486705e-05
817 1.966996213687178e-05
818 1.9622586013816712e-05
819 1.9575390520452718e-05
820 1.952837466799805e-05
821 1.948153747503984e-05
822 1.943487796664605e-05
823 1.9388395175174486e-05
824 1.9342088139723556e-05
825 1.9295955905782803e-05
826 1.9249997525993334e-05
827 1.920421205925527e-05
828 1.9158598571332936e-05
829 1.9113156134281642e-05
830 1.906788382694495e-05
831 1.9022780734417785e-05
832 1.8977845948190995e-05
833 1.89330785659214e-05
834 1.8888477691611998e-05
835 1.884404243574145e-05
836 1.8799771914814458e-05
837 1.8755665251085e-05
838 1.8711721573614652e-05
839 1.866794001681229e-05
840 1.862431972143975e-05
841 1.858085983388156e-05
842 1.8537559506614673e-05
843 1.8494417898061306e-05
844 1.8451434172340038e-05
845 1.840860749919062e-05
846 1.8365937053920777e-05
847 1.8323422017647798e-05
848 1.8281061577432836e-05
849 1.8238854925403007e-05
850 1.8196801259151913e-05
851 1.8154899782284392e-05
852 1.8113149703331767e-05
853 1.807155023624916e-05
854 1.803010060061152e-05
855 1.7988800021211463e-05
856 1.7947647727552265e-05
857 1.790664295546857e-05
858 1.786578494467901e-05
859 1.7825072941180073e-05
860 1.7784506195054624e-05
861 1.774408396214914e-05
862 1.770380550330594e-05
863 1.7663670083448086e-05
864 1.7623676973651545e-05
865 1.758382544927375e-05
866 1.7544114790286902e-05
867 1.7504544282048607e-05
868 1.7465113213984848e-05
869 1.7425820881224967e-05
870 1.7386666582535042e-05
871 1.7347649622300053e-05
872 1.7308769308693038e-05
873 1.727002495526422e-05
874 1.72314158793799e-05
875 1.7192941403528974e-05
876 1.715460085413096e-05
877 1.7116393562686618e-05
878 1.7078318864694948e-05
879 1.7040376100031472e-05
880 1.7002564612936534e-05
881 1.6964883752275613e-05
882 1.6927332870639377e-05
883 1.6889911325287935e-05
884 1.6852618477794702e-05
885 1.6815453693466704e-05
886 1.677841634191442e-05
887 1.674150579715555e-05
888 1.670472143692825e-05
889 1.666806264335211e-05
890 1.6631528802049174e-05
891 1.6595119303187974e-05
892 1.6558833540509608e-05
893 1.6522670912074288e-05
894 1.6486630819372152e-05
895 1.6450712668104784e-05
896 1.641491586758235e-05
897 1.6379239831273707e-05
898 1.6343683975940754e-05
899 1.6308247722553784e-05
900 1.62729304953025e-05
901 1.6237731722589957e-05
902 1.6202650836258837e-05
903 1.6167687271792814e-05
904 1.6132840468100787e-05
905 1.6098109867900362e-05
906 1.6063494917393172e-05
907 1.6028995066623788e-05
908 1.5994609768330192e-05
909 1.59603384794848e-05
910 1.5926180660419096e-05
911 1.5892135774395656e-05
912 1.5858203288570388e-05
913 1.5824382673159714e-05
914 1.5790673401799786e-05
915 1.5757074951683157e-05
916 1.572358680299107e-05
917 1.5690208439332913e-05
918 1.565693934725931e-05
919 1.5623779017381245e-05
920 1.559072694221586e-05
921 1.5557782618353834e-05
922 1.5524945545691294e-05
923 1.5492215226491567e-05
924 1.5459591166455824e-05
925 1.5427072874667675e-05
926 1.5394659862663495e-05
927 1.5362351645715147e-05
928 1.5330147741320867e-05
929 1.5298047670770934e-05
930 1.526605095762235e-05
931 1.523415712889459e-05
932 1.5202365714145133e-05
933 1.517067624579387e-05
934 1.5139088259599638e-05
935 1.5107601293830939e-05
936 1.5076214889463e-05
937 1.5044928590615048e-05
938 1.5013741944036389e-05
939 1.498265449918816e-05
940 1.4951665808549278e-05
941 1.4920775426692733e-05
942 1.4889982911680342e-05
943 1.4859287823722705e-05
944 1.4828689725974613e-05
945 1.4798188183934604e-05
946 1.4767782765985765e-05
947 1.4737473043424865e-05
948 1.4707258589402963e-05
949 1.4677138980052268e-05
950 1.4647113794185863e-05
951 1.4617182612742665e-05
952 1.4587345019447609e-05
953 1.4557600600787453e-05
954 1.4527948944937955e-05
955 1.4498389643303715e-05
956 1.4468922289451858e-05
957 1.4439546479425134e-05
958 1.4410261811316468e-05
959 1.4381067886121453e-05
960 1.4351964306867401e-05
961 1.4322950679199384e-05
962 1.4294026610816748e-05
963 1.4265191711809447e-05
964 1.423644559474956e-05
965 1.4207787874172483e-05
966 1.4179218167445661e-05
967 1.4150736093354933e-05
968 1.4122341273743462e-05
969 1.4094033332053922e-05
970 1.4065811894271448e-05
971 1.4037676588632533e-05
972 1.4009627045429263e-05
973 1.3981662896597674e-05
974 1.3953783777102887e-05
975 1.39259893236067e-05
976 1.3898279174596267e-05
977 1.3870652971313712e-05
978 1.3843110356572158e-05
979 1.3815650975398157e-05
980 1.3788274474844489e-05
981 1.3760980503963815e-05
982 1.3733768713928365e-05
983 1.3706638757805818e-05
984 1.3679590290778999e-05
985 1.3652622969946856e-05
986 1.362573645431962e-05
987 1.3598930404870542e-05
988 1.3572204484760692e-05
989 1.3545558358483194e-05
990 1.3518991693024538e-05
991 1.3492504156899627e-05
992 1.3466095420892694e-05
993 1.3439765157119132e-05
994 1.3413513039977565e-05
995 1.338733874553686e-05
996 1.336124195169073e-05
997 1.3335222338246938e-05
998 1.330927958673569e-05
999 1.3283413380407976e-05
1000 1.3257623404377833e-05
1001 1.3231909345370805e-05
1002 1.3206270892483201e-05
1003 1.3180707735588705e-05
1004 1.3155219566744764e-05
1005 1.3129806080096739e-05
1006 1.3104466970849059e-05
1007 1.307920193626077e-05
1008 1.3054010675281067e-05
1009 1.302889288838153e-05
1010 1.300384827768262e-05
1011 1.2978876547067843e-05
1012 1.2953977401954747e-05
1013 1.2929150549602256e-05
1014 1.2904395698299719e-05
1015 1.2879712558781768e-05
1016 1.2855100842730482e-05
1017 1.2830560263416792e-05
1018 1.2806090536247748e-05
1019 1.2781691377368859e-05
1020 1.275736250533503e-05
1021 1.2733103639306875e-05
1022 1.270891450087448e-05
1023 1.2684794812429369e-05
1024 1.2660744298290084e-05
1025 1.2636762684021651e-05
1026 1.2612849697015689e-05
1027 1.2589005065484788e-05
1028 1.2565228519921286e-05
1029 1.2541519791560508e-05
1030 1.2517878613603998e-05
1031 1.2494304720275498e-05
1032 1.2470797847418259e-05
1033 1.2447357732328451e-05
1034 1.2423984113674398e-05
1035 1.2400676731393213e-05
1036 1.237743532704224e-05
1037 1.23542596432637e-05
1038 1.2331149424306281e-05
1039 1.2308104415449688e-05
1040 1.2285124363758607e-05
1041 1.2262209017421139e-05
1042 1.2239358125799104e-05
1043 1.221657143978133e-05
1044 1.2193848711649518e-05
1045 1.2171189694629109e-05
1046 1.2148594143441383e-05
1047 1.2126061814331515e-05
1048 1.2103592464488906e-05
1049 1.2081185852282794e-05
1050 1.2058841737688718e-05
1051 1.2036559881699236e-05
1052 1.20143400468948e-05
1053 1.1992181996312621e-05
1054 1.1970085494905716e-05
1055 1.194805030894022e-05
1056 1.1926076205202756e-05
1057 1.1904162952462343e-05
1058 1.1882310319640736e-05
1059 1.1860518078091103e-05
1060 1.1838785999582122e-05
1061 1.1817113857149825e-05
1062 1.1795501425002619e-05
1063 1.1773948478862744e-05
1064 1.1752454794837519e-05
1065 1.1731020150805456e-05
1066 1.1709644325729728e-05
1067 1.168832709943121e-05
1068 1.1667068253077198e-05
1069 1.1645867568590977e-05
1070 1.1624724829459163e-05
1071 1.1603639819931185e-05
1072 1.1582612325495913e-05
1073 1.156164213281252e-05
1074 1.1540729029162972e-05
1075 1.1519872803646132e-05
1076 1.1499073245607099e-05
1077 1.1478330146038425e-05
1078 1.1457643296681575e-05
1079 1.1437012490332347e-05
1080 1.141643752096015e-05
1081 1.1395918183592987e-05
1082 1.1375454273884694e-05
1083 1.1355045589062756e-05
1084 1.1334691926819286e-05
1085 1.1314393086233372e-05
1086 1.129414886722546e-05
1087 1.1273959070899521e-05
1088 1.1253823498722622e-05
1089 1.1233741953915137e-05
1090 1.1213714240107026e-05
1091 1.1193740162457725e-05
1092 1.1173819526311144e-05
1093 1.1153952138517016e-05
1094 1.1134137806818811e-05
1095 1.1114376339776148e-05
1096 1.109466754653836e-05
1097 1.1075011238160992e-05
1098 1.1055407225375804e-05
1099 1.1035855320943583e-05
1100 1.1016355337768247e-05
1101 1.0996907090186431e-05
1102 1.0977510392750909e-05
1103 1.095816506161301e-05
1104 1.0938870913337307e-05
1105 1.0919627765773253e-05
1106 1.0900435437226446e-05
1107 1.08812937471569e-05
1108 1.0862202515749066e-05
1109 1.084316156388639e-05
1110 1.0824170713813362e-05
1111 1.0805229788363985e-05
1112 1.0786338610832356e-05
1113 1.0767497005720384e-05
1114 1.0748704798416306e-05
1115 1.0729961815175254e-05
1116 1.0711267882671015e-05
1117 1.0692622828607338e-05
1118 1.0674026481818801e-05
1119 1.0655478671404914e-05
1120 1.0636979227508292e-05
1121 1.0618527981591304e-05
1122 1.0600124764786064e-05
1123 1.058176940975626e-05
1124 1.0563461749871973e-05
1125 1.0545201619436078e-05
1126 1.0526988852841752e-05
1127 1.0508823285987147e-05
1128 1.0490704755434534e-05
1129 1.0472633097980628e-05
1130 1.0454608151655628e-05
1131 1.043662975488484e-05
1132 1.0418697747491149e-05
1133 1.0400811969276765e-05
1134 1.038297226122625e-05
1135 1.0365178464659364e-05
1136 1.034743042227019e-05
1137 1.0329727976810083e-05
1138 1.0312070972055434e-05
1139 1.0294459252737544e-05
1140 1.0276892663576054e-05
1141 1.0259371050880576e-05