TITLE = "Residual History"
VARIABLES = "Iteration", "Residual Norm"
ZONE T="N=49", I=2097, F=POINT
0 1.4496446332448372
1 1.0813583373233635
2 0.81131338684124
3 0.608491887400485
4 0.45510440180777467
5 0.33911377627765626
6 0.251764136558786
7 0.18641399503867254
8 0.13790425656515634
9 0.10218351923609137
10 0.07606595249686966
11 0.05706158187512416
12 0.04324891395290459
13 0.03317338392782977
14 0.02576102836943599
15 0.020240780263669156
16 0.01607325186238279
17 0.012887703047405148
18 0.010430097398191682
19 0.008523743515699003
20 0.007041799523914342
21 0.0058894300354445095
22 0.0049929957370697204
23 0.0042939212095115566
24 0.003745366783031375
25 0.0033103191023721736
26 0.0029601945930522833
27 0.0026735050830424397
28 0.002434486360190737
29 0.002231773066177741
30 0.0020572341627134306
31 0.0019050355640739636
32 0.0017709375172498965
33 0.001651795698131896
34 0.001545220274348586
35 0.0014493483300571158
36 0.0013626933455526216
37 0.0012840451738483597
38 0.001212402427806442
39 0.0011469255566440761
40 0.001086903258762468
41 0.0010317276921717167
42 0.0009808756779957418
43 0.0009338941318238747
44 0.0008903885746379302
45 0.0008500139455649736
46 0.0008124671686650149
47 0.0007774810756086996
48 0.0007448193885480891
49 0.000714272540541301
50 0.0006856541644298902
51 0.0006587981208210446
52 0.000633555965489228
53 0.0006097947786857747
54 0.0005873952954348481
55 0.0005662502883512036
56 0.0005462631639491417
57 0.0005273467406178882
58 0.0005094221820293058
59 0.0004924180641309453
60 0.0004762695573861984
61 0.0004609177087542367
62 0.0004463088102203216
63 0.00043239384260823995
64 0.00041912798500471076
65 0.0004064701814662636
66 0.0003943827578239739
67 0.00038283108235614684
68 0.00037178326493180955
69 0.0003612098899259548
70 0.00035108377882023343
71 0.00034137977892038094
72 0.00033207457507621914
73 0.0003231465216816632
74 0.0003145754925680427
75 0.0003063427467042066
76 0.00029843080787151684
77 0.0002908233567044244
78 0.000283505133688016
79 0.00027646185186932344
80 0.0002696801181946155
81 0.00026314736250961736
82 0.00025685177338171484
83 0.0002507822399972431
84 0.0002449282994792452
85 0.00023928008904676164
86 0.0002338283025050635
87 0.00022856415061549846
88 0.0002234793249456788
89 0.00021856596484609141
90 0.00021381662724141357
91 0.00020922425895562467
92 0.0002047821713267136
93 0.00020048401688685906
94 0.0001963237679176812
95 0.0001922956966965655
96 0.00018839435728511028
97 0.00018461456871450967
98 0.00018095139944154199
99 0.00017740015296233906
100 0.00017395635448161297
101 0.00017061573854349827
102 0.00016737423754068078
103 0.0001642279710272559
104 0.00016117323576457968
105 0.00015820649644029304
106 0.0001553243770009938
107 0.000152523652550914
108 0.00014980124176569256
109 0.0001471541997825693
110 0.00014457971152694954
111 0.0001420750854388105
112 0.00013963774756967082
113 0.0001372652360192293
114 0.00013495519568672114
115 0.00013270537331014167
116 0.00013051361277669667
117 0.00012837785067781917
118 0.00012629611209852073
119 0.00012426650661746916
120 0.00012228722450730552
121 0.00012035653312174179
122 0.00011847277345354965
123 0.00011663435685802612
124 0.00011483976192538372
125 0.00011308753149837985
126 0.00011137626982409911
127 0.00010970463983100624
128 0.00010807136052851786
129 0.00010647520451830832
130 0.00010491499561363601
131 0.0001033896065614406
132 0.00010189795686175185
133 0.00010043901067917128
134 9.901177484416361e-05
135 9.76152969373961e-05
136 9.624866345688346e-05
137 9.491099806150224e-05
138 9.360145988842357e-05
139 9.23192419439756e-05
140 9.106356956058667e-05
141 8.983369892090952e-05
142 8.862891564473863e-05
143 8.744853343718195e-05
144 8.629189279460524e-05
145 8.515835976775351e-05
146 8.404732477744229e-05
147 8.295820148430725e-05
148 8.189042570758883e-05
149 8.084345439104673e-05
150 7.98167646170977e-05
151 7.880985266555822e-05
152 7.782223311284075e-05
153 7.68534379745345e-05
154 7.59030158871003e-05
155 7.497053132747076e-05
156 7.405556386876842e-05
157 7.315770747126918e-05
158 7.227656980755175e-05
159 7.141177161950075e-05
160 7.056294610525575e-05
161 6.972973833806951e-05
162 6.8911804711378e-05
163 6.810881241183841e-05
164 6.732043891905616e-05
165 6.654637152943543e-05
166 6.578630690330721e-05
167 6.503995063695915e-05
168 6.43070168534674e-05
169 6.35872278174025e-05
170 6.288031356642803e-05
171 6.218601156467542e-05
172 6.150406637113278e-05
173 6.08342293285265e-05
174 6.0176258265808914e-05
175 5.952991721772935e-05
176 5.8894976159274624e-05
177 5.827121075408288e-05
178 5.7658402115498894e-05
179 5.705633658280552e-05
180 5.646480550589087e-05
181 5.5883605046018096e-05
182 5.531253598347663e-05
183 5.4751403538630285e-05
184 5.4200017201177104e-05
185 5.365819056922519e-05
186 5.312574119798088e-05
187 5.2602490456369686e-05
188 5.208826339050724e-05
189 5.1582888597451055e-05
190 5.1086198103283694e-05
191 5.059802724996495e-05
192 5.01182145872889e-05
193 4.96466017714467e-05
194 4.918303346996002e-05
195 4.8727357270874434e-05
196 4.8279423597194495e-05
197 4.78390856265872e-05
198 4.7406199215866303e-05
199 4.69806228283547e-05
200 4.656221746706741e-05
201 4.6150846609920024e-05
202 4.5746376149607696e-05
203 4.534867433634357e-05
204 4.495761172343623e-05
205 4.4573061116754e-05
206 4.4194897525380945e-05
207 4.382299811602676e-05
208 4.3457242169541616e-05
209 4.309751103907445e-05
210 4.274368811095421e-05
211 4.2395658767208925e-05
212 4.205331034981061e-05
213 4.171653212632239e-05
214 4.138521525794046e-05
215 4.10592527682009e-05
216 4.073853951261716e-05
217 4.0422972150632076e-05
218 4.0112449118445225e-05
219 3.980687060119024e-05
220 3.950613850905617e-05
221 3.921015645131929e-05
222 3.891882971370526e-05
223 3.863206523353521e-05
224 3.83497715787317e-05
225 3.8071858925445595e-05
226 3.7798239036568425e-05
227 3.7528825240321815e-05
228 3.7263532411371635e-05
229 3.700227694942122e-05
230 3.6744976759592587e-05
231 3.6491551234059016e-05
232 3.624192123229459e-05
233 3.5996009062415815e-05
234 3.575373846241106e-05
235 3.5515034582664086e-05
236 3.527982396636203e-05
237 3.504803453296421e-05
238 3.481959555971844e-05
239 3.459443766358233e-05
240 3.4372492784496255e-05
241 3.4153694166978276e-05
242 3.393797634346699e-05
243 3.3725275116516455e-05
244 3.3515527541941426e-05
245 3.330867191120494e-05
246 3.310464773490153e-05
247 3.290339572490364e-05
248 3.2704857778194974e-05
249 3.250897695950266e-05
250 3.231569748428512e-05
251 3.212496470236888e-05
252 3.193672508071809e-05
253 3.175092618685261e-05
254 3.1567516672304215e-05
255 3.138644625602531e-05
256 3.12076657076331e-05
257 3.103112683076035e-05
258 3.0856782447410124e-05
259 3.068458638060597e-05
260 3.0514493439166524e-05
261 3.034645940048926e-05
262 3.0180440995090315e-05
263 3.0016395890333213e-05
264 2.9854282674601167e-05
265 2.9694060841834098e-05
266 2.9535690775204518e-05
267 2.937913373127567e-05
268 2.922435182555292e-05
269 2.9071308016080876e-05
270 2.8919966088594355e-05
271 2.8770290641866565e-05
272 2.8622247071578848e-05
273 2.847580155618263e-05
274 2.8330921042129e-05
275 2.818757322925905e-05
276 2.804572655593957e-05
277 2.7905350185223285e-05
278 2.7766413990645565e-05
279 2.7628888541861985e-05
280 2.7492745091326877e-05
281 2.73579555602218e-05
282 2.7224492524979404e-05
283 2.7092329204373398e-05
284 2.6961439445735336e-05
285 2.683179771217765e-05
286 2.6703379070210048e-05
287 2.657615917625417e-05
288 2.6450114264984355e-05
289 2.6325221136317553e-05
290 2.6201457143889826e-05
291 2.6078800182950577e-05
292 2.5957228678060736e-05
293 2.583672157254794e-05
294 2.5717258316020448e-05
295 2.5598818854089005e-05
296 2.548138361699273e-05
297 2.5364933508367727e-05
298 2.524944989478132e-05
299 2.513491459614091e-05
300 2.502130987376281e-05
301 2.4908618421927934e-05
302 2.4796823356387767e-05
303 2.4685908205729912e-05
304 2.457585690194197e-05
305 2.4466653769524248e-05
306 2.435828351812215e-05
307 2.4250731231729772e-05
308 2.4143982361583758e-05
309 2.4038022716066217e-05
310 2.3932838452777985e-05
311 2.3828416069852426e-05
312 2.3724742398447983e-05
313 2.362180459338949e-05
314 2.3519590127279928e-05
315 2.341808678062912e-05
316 2.33172826357652e-05
317 2.3217166069273016e-05
318 2.3117725743935918e-05
319 2.3018950602466073e-05
320 2.2920829860479435e-05
321 2.282335299937279e-05
322 2.2726509760060632e-05
323 2.263029013605925e-05
324 2.2534684367448326e-05
325 2.2439682934750543e-05
326 2.2345276552927406e-05
327 2.2251456164675736e-05
328 2.2158212935612766e-05
329 2.2065538248303078e-05
330 2.1973423696507913e-05
331 2.188186107973844e-05
332 2.1790842398713028e-05
333 2.170035984872802e-05
334 2.161040581639797e-05
335 2.1520972873639363e-05
336 2.143205377292738e-05
337 2.1343641442778276e-05
338 2.125572898378006e-05
339 2.116830966253034e-05
340 2.1081376909343722e-05
341 2.0994924312273702e-05
342 2.090894561376708e-05
343 2.082343470661716e-05
344 2.0738385630229467e-05
345 2.0653792565446578e-05
346 2.0569649832581052e-05
347 2.048595188698508e-05
348 2.0402693314996314e-05
349 2.0319868831143213e-05
350 2.023747327475394e-05
351 2.0155501605908136e-05
352 2.0073948903058806e-05
353 1.9992810359626744e-05
354 1.991208128058606e-05
355 1.9831757079572018e-05
356 1.9751833277022562e-05
357 1.9672305495417064e-05
358 1.9593169458280873e-05
359 1.9514420986539123e-05
360 1.9436055995880714e-05
361 1.9358070495160148e-05
362 1.928046058235921e-05
363 1.920322244352524e-05
364 1.9126352350057215e-05
365 1.904984665613921e-05
366 1.897370179598179e-05
367 1.8897914283015814e-05
368 1.8822480706830756e-05
369 1.8747397731489933e-05
370 1.867266209313094e-05
371 1.859827059821297e-05
372 1.8524220121650082e-05
373 1.845050760514899e-05
374 1.837713005493498e-05
375 1.830408454043157e-05
376 1.823136819205556e-05
377 1.815897820045428e-05
378 1.8086911813813245e-05
379 1.8015166336944103e-05
380 1.79437391297797e-05
381 1.7872627605055966e-05
382 1.780182922816244e-05
383 1.773134151500932e-05
384 1.766116203014608e-05
385 1.759128838665385e-05
386 1.7521718243763957e-05
387 1.7452449306232832e-05
388 1.7383479322696896e-05
389 1.731480608473208e-05
390 1.7246427425919718e-05
391 1.717834122000999e-05
392 1.711054538053765e-05
393 1.7043037859173237e-05
394 1.6975816645334932e-05
395 1.690887976442175e-05
396 1.6842225277821275e-05
397 1.677585128047973e-05
398 1.670975590159397e-05
399 1.664393730262101e-05
400 1.6578393676819828e-05
401 1.6513123248262608e-05
402 1.6448124271098395e-05
403 1.638339502878768e-05
404 1.6318933833297733e-05
405 1.625473902405975e-05
406 1.619080896746854e-05
407 1.6127142056454626e-05
408 1.6063736708745195e-05
409 1.600059136789892e-05
410 1.5937704501063766e-05
411 1.5875074598947645e-05
412 1.58127001752897e-05
413 1.575057976617087e-05
414 1.5688711929364043e-05
415 1.5627095243717303e-05
416 1.5565728308659527e-05
417 1.5504609743750946e-05
418 1.544373818818769e-05
419 1.5383112299841387e-05
420 1.5322730755573667e-05
421 1.5262592249825405e-05
422 1.5202695494593841e-05
423 1.5143039219734323e-05
424 1.5083622170862831e-05
425 1.5024443109962263e-05
426 1.4965500815572906e-05
427 1.4906794080724091e-05
428 1.484832171432401e-05
429 1.4790082539029313e-05
430 1.4732075392502287e-05
431 1.4674299125827676e-05
432 1.461675260392669e-05
433 1.4559434705028783e-05
434 1.4502344319898771e-05
435 1.4445480352071575e-05
436 1.4388841717220289e-05
437 1.4332427343210007e-05
438 1.4276236169383104e-05
439 1.4220267146076532e-05
440 1.416451923580509e-05
441 1.4108991410546926e-05
442 1.4053682653720977e-05
443 1.3998591958817751e-05
444 1.3943718329500639e-05
445 1.3889060779020382e-05
446 1.3834618330318893e-05
447 1.3780390015464323e-05
448 1.3726374876301364e-05
449 1.3672571962856266e-05
450 1.361898033455069e-05
451 1.3565599058461182e-05
452 1.3512427210773534e-05
453 1.3459463875558873e-05
454 1.340670814484175e-05
455 1.3354159118245843e-05
456 1.3301815902981035e-05
457 1.324967761399566e-05
458 1.3197743373183396e-05
459 1.3146012309631254e-05
460 1.309448355966056e-05
461 1.3043156265715052e-05
462 1.2992029577519774e-05
463 1.2941102651245011e-05
464 1.2890374648961524e-05
465 1.2839844739416695e-05
466 1.2789512097324546e-05
467 1.2739375903538222e-05
468 1.2689435344391524e-05
469 1.26396896122884e-05
470 1.2590137905088805e-05
471 1.254077942650953e-05
472 1.2491613385053158e-05
473 1.2442638995064846e-05
474 1.2393855475982869e-05
475 1.2345262052297797e-05
476 1.2296857953089836e-05
477 1.2248642413163053e-05
478 1.2200614671415753e-05
479 1.215277397191038e-05
480 1.210511956312907e-05
481 1.2057650698428504e-05
482 1.2010366635102967e-05
483 1.1963266635307218e-05
484 1.1916349965510299e-05
485 1.1869615896046033e-05
486 1.1823063701694242e-05
487 1.1776692661575158e-05
488 1.1730502058399021e-05
489 1.1684491179165598e-05
490 1.163865931461325e-05
491 1.1593005759301297e-05
492 1.1547529811985899e-05
493 1.1502230774584524e-05
494 1.145710795303038e-05
495 1.1412160656754366e-05
496 1.1367388199030042e-05
497 1.1322789895916062e-05
498 1.1278365067832385e-05
499 1.1234113038089778e-05
500 1.1190033133610852e-05
501 1.114612468434997e-05
502 1.110238702350139e-05
503 1.1058819487993538e-05
504 1.1015421417604443e-05
505 1.0972192155214403e-05
506 1.0929131046717123e-05
507 1.0886237441469691e-05
508 1.0843510691613067e-05
509 1.080095015202663e-05
510 1.0758555181045121e-05
511 1.071632513952609e-05
512 1.0674259391532174e-05
513 1.0632357303654927e-05
514 1.0590618245636213e-05
515 1.0549041589567273e-05
516 1.0507626710809428e-05
517 1.0466372987161794e-05
518 1.0425279799028164e-05
519 1.0384346529702102e-05
520 1.0343572565152351e-05
521 1.0302957293879968e-05
522 1.0262500106625075e-05
523 1.0222200397517192e-05
524 1.0182057562251073e-05
525 1.0142070999803535e-05
526 1.0102240111393903e-05
527 1.006256430063249e-05
528 1.0023042973678846e-05
529 9.983675538897925e-06
530 9.944461407518408e-06
531 9.905399992595861e-06
532 9.86649071027301e-06
533 9.827732978245098e-06
534 9.789126217004381e-06
535 9.750669849283326e-06
536 9.712363300038959e-06
537 9.674205996564967e-06
538 9.636197368479643e-06
539 9.598336847519259e-06
540 9.560623867645612e-06
541 9.523057865178732e-06
542 9.485638278202413e-06
543 9.448364547756667e-06
544 9.411236116229033e-06
545 9.374252428856821e-06
546 9.337412932404308e-06
547 9.300717076240474e-06
548 9.264164311474918e-06
549 9.227754091527845e-06
550 9.191485871813642e-06
551 9.155359109983682e-06
552 9.119373265547518e-06
553 9.083527799934789e-06
554 9.047822177111394e-06
555 9.012255862636846e-06
556 8.976828324092956e-06
557 8.94153903132248e-06
558 8.906387455803755e-06
559 8.871373071432297e-06
560 8.83649535401248e-06
561 8.80175378051119e-06
562 8.767147830831883e-06
563 8.732676986501672e-06
564 8.698340730704943e-06
565 8.664138549045946e-06
566 8.630069928453866e-06
567 8.596134358243615e-06
568 8.562331329197879e-06
569 8.528660334477208e-06
570 8.495120868691843e-06
571 8.46171242851899e-06
572 8.428434512511068e-06
573 8.395286620875327e-06
574 8.362268255872126e-06
575 8.329378921457126e-06
576 8.296618123529285e-06
577 8.263985369572857e-06
578 8.231480169185117e-06
579 8.199102033617457e-06
580 8.166850475915698e-06
581 8.134725010723744e-06
582 8.102725154904047e-06
583 8.07085042686058e-06
584 8.039100346310876e-06
585 8.007474435612056e-06
586 7.975972218394526e-06
587 7.94459321973303e-06
588 7.913336967007429e-06
589 7.882202988798523e-06
590 7.851190816232937e-06
591 7.820299981286801e-06
592 7.789530017716757e-06
593 7.758880461444559e-06
594 7.728350850187869e-06
595 7.697940722624543e-06
596 7.667649619829251e-06
597 7.637477083975498e-06
598 7.607422659405576e-06
599 7.577485892068327e-06
600 7.547666329088076e-06
601 7.517963519803545e-06
602 7.488377014938502e-06
603 7.4589063668966905e-06
604 7.429551129701264e-06
605 7.400310859224399e-06
606 7.371185112603661e-06
607 7.3421734486955005e-06
608 7.313275428137201e-06
609 7.284490613266672e-06
610 7.255818567708005e-06
611 7.2272588567086626e-06
612 7.198811047235632e-06
613 7.1704747081673055e-06
614 7.142249409131403e-06
615 7.114134722241033e-06
616 7.086130220414472e-06
617 7.058235478781164e-06
618 7.030450073580813e-06
619 7.002773583039545e-06
620 6.975205586419983e-06
621 6.9477456645060565e-06
622 6.920393400480845e-06
623 6.893148378135512e-06
624 6.86601018315953e-06
625 6.838978402827629e-06
626 6.812052625902132e-06
627 6.785232442279581e-06
628 6.758517444155309e-06
629 6.731907224347624e-06
630 6.7054013778032545e-06
631 6.678999500887996e-06
632 6.652701191171079e-06
633 6.62650604780335e-06
634 6.60041367154574e-06
635 6.574423664700389e-06
636 6.54853563066467e-06
637 6.52274917481997e-06
638 6.497063903416936e-06
639 6.4714794247675284e-06
640 6.44599534843193e-06
641 6.420611285122804e-06
642 6.395326847194944e-06
643 6.370141648358512e-06
644 6.345055304329407e-06
645 6.320067431231078e-06
646 6.295177647551588e-06
647 6.270385572811967e-06
648 6.245690827653624e-06
649 6.221093034744943e-06
650 6.19659181747804e-06
651 6.172186801477639e-06
652 6.147877612764928e-06
653 6.123663879660464e-06
654 6.099545231382842e-06
655 6.075521298568801e-06
656 6.051591713581673e-06
657 6.027756109542696e-06
658 6.004014121521901e-06
659 5.9803653855769434e-06
660 5.956809539345694e-06
661 5.933346221785776e-06
662 5.9099750731957144e-06
663 5.886695734942064e-06
664 5.863507850192949e-06
665 5.840411063226599e-06
666 5.817405019850482e-06
667 5.794489366564462e-06
668 5.77166375215779e-06
669 5.748927825905976e-06
670 5.72628123883574e-06
671 5.703723643248374e-06
672 5.681254692654505e-06
673 5.658874041784372e-06
674 5.636581346885586e-06
675 5.614376265596045e-06
676 5.592258456276088e-06
677 5.570227579168622e-06
678 5.5482832955944265e-06
679 5.5264252680353474e-06
680 5.504653160212252e-06
681 5.482966637524227e-06
682 5.46136536626687e-06
683 5.439849014207141e-06
684 5.418417249849244e-06
685 5.397069743671236e-06
686 5.375806167000597e-06
687 5.354626192435911e-06
688 5.333529494011285e-06
689 5.312515746719329e-06
690 5.2915846270486795e-06
691 5.270735812194861e-06
692 5.249968981319202e-06
693 5.229283814409903e-06
694 5.208679992627026e-06
695 5.188157198343322e-06
696 5.167715115376741e-06
697 5.147353428396593e-06
698 5.127071823608921e-06
699 5.106869988084362e-06
700 5.0867476105578115e-06
701 5.066704380183398e-06
702 5.0467399881592245e-06
703 5.026854126320741e-06
704 5.007046487768132e-06
705 4.9873167669029605e-06
706 4.9676646592577315e-06
707 4.948089861151531e-06
708 4.9285920708134286e-06
709 4.909170986841121e-06
710 4.889826309626627e-06
711 4.870557740325372e-06
712 4.851364981109478e-06
713 4.832247735796259e-06
714 4.813205708812389e-06
715 4.794238606343858e-06
716 4.775346134766503e-06
717 4.756528002508405e-06
718 4.737783918490743e-06
719 4.7191135930092e-06
720 4.700516737595333e-06
721 4.681993064515837e-06
722 4.6635422877522365e-06
723 4.645164121333065e-06
724 4.62685828161096e-06
725 4.608624485180153e-06
726 4.590462449928457e-06
727 4.5723718952670626e-06
728 4.554352540855e-06
729 4.5364041080919196e-06
730 4.5185263192925545e-06
731 4.500718897374686e-06
732 4.482981567409194e-06
733 4.4653140541385845e-06
734 4.447716084743482e-06
735 4.430187386119914e-06
736 4.4127276871953684e-06
737 4.395336717589273e-06
738 4.378014208152451e-06
739 4.360759890391032e-06
740 4.343573496873837e-06
741 4.326454761797529e-06
742 4.3094034198516616e-06
743 4.292419206607126e-06
744 4.275501859323165e-06
745 4.258651115498369e-06
746 4.241866714181973e-06
747 4.225148395117886e-06
748 4.20849589956028e-06
749 4.191908968976812e-06
750 4.175387346484166e-06
751 4.1589307758443475e-06
752 4.142539002017843e-06
753 4.1262117706022156e-06
754 4.1099488289419615e-06
755 4.0937499243132376e-06
756 4.07761480589815e-06
757 4.061543223139413e-06
758 4.045534926741627e-06
759 4.029589668795682e-06
760 4.013707201768781e-06
761 3.997887278950885e-06
762 3.982129655374326e-06
763 3.966434086158913e-06
764 3.950800328086381e-06
765 3.935228138204804e-06
766 3.919717275262925e-06
767 3.9042674982098665e-06
768 3.888878567453027e-06
769 3.873550243896844e-06
770 3.858282289998641e-06
771 3.843074468193148e-06
772 3.82792654297049e-06
773 3.8128382787128594e-06
774 3.7978094414180897e-06
775 3.7828397975735708e-06
776 3.7679291146778503e-06
777 3.7530771614534017e-06
778 3.738283707082968e-06
779 3.7235485216647774e-06
780 3.7088713765209148e-06
781 3.694252043746371e-06
782 3.6796902960543834e-06
783 3.665185907264335e-06
784 3.6507386522980722e-06
785 3.6363483064266203e-06
786 3.622014646306346e-06
787 3.607737448963596e-06
788 3.593516492718733e-06
789 3.5793515564086947e-06
790 3.565242420338356e-06
791 3.5511888646068557e-06
792 3.53719067159654e-06
793 3.523247623071088e-06
794 3.5093595025438926e-06
795 3.4955260942339347e-06
796 3.481747183006198e-06
797 3.4680225546071964e-06
798 3.4543519960692816e-06
799 3.4407352941939268e-06
800 3.4271722379780376e-06
801 3.4136626160129337e-06
802 3.4002062184006766e-06
803 3.386802836170808e-06
804 3.3734522606560444e-06
805 3.360154284304068e-06
806 3.3469087000951132e-06
807 3.3337153024239177e-06
808 3.3205738859022278e-06
809 3.3074842461142134e-06
810 3.294446179593361e-06
811 3.281459483444982e-06
812 3.26852395569361e-06
813 3.25563939515449e-06
814 3.242805601376371e-06
815 3.2300223745713e-06
816 3.2172895159766416e-06
817 3.2046068276118014e-06
818 3.1919741122243606e-06
819 3.179391172996611e-06
820 3.1668578142168504e-06
821 3.1543738407882038e-06
822 3.141939058833248e-06
823 3.1295532743359275e-06
824 3.1172162949919395e-06
825 3.104927928590866e-06
826 3.0926879840088575e-06
827 3.0804962705971953e-06
828 3.068352598578369e-06
829 3.0562567792839156e-06
830 3.0442086242895785e-06
831 3.032207945895893e-06
832 3.0202545574084506e-06
833 3.00834827286398e-06
834 2.9964889067875757e-06
835 2.9846762746278917e-06
836 2.972910192467262e-06
837 2.961190477271286e-06
838 2.9495169462608287e-06
839 2.9378894181279378e-06
840 2.926307711420947e-06
841 2.9147716461422235e-06
842 2.903281042587434e-06
843 2.8918357217955586e-06
844 2.8804355054782843e-06
845 2.8690802164685553e-06
846 2.857769677367956e-06
847 2.846503712552233e-06
848 2.8352821462166414e-06
849 2.8241048040871553e-06
850 2.8129715116041243e-06
851 2.8018820955722434e-06
852 2.7908363834488516e-06
853 2.7798342030119403e-06
854 2.7688753829167706e-06
855 2.7579597525518405e-06
856 2.7470871417904124e-06
857 2.7362573814478643e-06
858 2.725470302655026e-06
859 2.7147257375086345e-06
860 2.7040235188122485e-06
861 2.693363479388011e-06
862 2.682745453659762e-06
863 2.6721692758718722e-06
864 2.6616347814461296e-06
865 2.6511418063558353e-06
866 2.640690186860159e-06
867 2.6302797603785592e-06
868 2.619910364597238e-06
869 2.6095818379967876e-06
870 2.5992940197590396e-06
871 2.589046749261057e-06
872 2.5788398671987915e-06
873 2.5686732146375516e-06
874 2.558546632760335e-06
875 2.548459963880904e-06
876 2.538413050930122e-06
877 2.528405737518541e-06
878 2.518437867443492e-06
879 2.508509285641112e-06
880 2.4986198369800494e-06
881 2.4887693677223405e-06
882 2.4789577242837766e-06
883 2.4691847535681174e-06
884 2.4594503036334673e-06
885 2.4497542224671374e-06
886 2.4400963589335077e-06
887 2.4304765628014128e-06
888 2.4208946840331547e-06
889 2.4113505731734635e-06
890 2.4018440816274504e-06
891 2.3923750610179514e-06
892 2.382943363967033e-06
893 2.3735488434610236e-06
894 2.364191352895276e-06
895 2.3548707466843345e-06
896 2.3455868793449893e-06
897 2.336339606134784e-06
898 2.32712878308925e-06
899 2.3179542665289513e-06
900 2.308815913550205e-06
901 2.299713581265113e-06
902 2.2906471286148138e-06
903 2.2816164134394606e-06
904 2.2726212956723793e-06
905 2.263661634367679e-06
906 2.254737290421329e-06
907 2.2458481242920136e-06
908 2.2369939978527844e-06
909 2.22817477273329e-06
910 2.219390311534546e-06
911 2.2106404773690445e-06
912 2.201925133750578e-06
913 2.193244144844174e-06
914 2.1845973752463063e-06
915 2.1759846902726385e-06
916 2.1674059554852015e-06
917 2.1588610372016745e-06
918 2.150349802288016e-06
919 2.141872117891139e-06
920 2.133427852000101e-06
921 2.125016872793946e-06
922 2.116639049148223e-06
923 2.10829425058686e-06
924 2.0999823467235846e-06
925 2.09170320818891e-06
926 2.0834567058469106e-06
927 2.075242711032733e-06
928 2.0670610958313388e-06
929 2.0589117323929836e-06
930 2.0507944938483977e-06
931 2.0427092536195156e-06
932 2.0346558855319622e-06
933 2.026634264078042e-06
934 2.01864426425726e-06
935 2.0106857612546257e-06
936 2.0027586311110597e-06
937 1.994862750210611e-06
938 1.986997995273246e-06
939 1.9791642438941327e-06
940 1.9713613736619912e-06
941 1.9635892630511352e-06
942 1.9558477907667477e-06
943 1.9481368361663296e-06
944 1.940456279035403e-06
945 1.9328059995901272e-06
946 1.9251858783113397e-06
947 1.917595796512589e-06
948 1.9100356358129802e-06
949 1.9025052782070029e-06
950 1.8950046064376527e-06
951 1.8875335033675403e-06
952 1.8800918526172512e-06
953 1.872679538098552e-06
954 1.86529644410621e-06
955 1.8579424555729411e-06
956 1.850617457586489e-06
957 1.8433213361727438e-06
958 1.836053977533166e-06
959 1.8288152680521125e-06
960 1.8216050951997749e-06
961 1.8144233462586884e-06
962 1.8072699093270011e-06
963 1.8001446726610639e-06
964 1.79304752522073e-06
965 1.7859783564577199e-06
966 1.778937055944665e-06
967 1.7719235138682899e-06
968 1.7649376208417599e-06
969 1.7579792680844125e-06
970 1.7510483468095715e-06
971 1.7441447487895987e-06
972 1.737268366692515e-06
973 1.7304190932142046e-06
974 1.7235968211410519e-06
975 1.7168014445267465e-06
976 1.7100328571422037e-06
977 1.7032909533473326e-06
978 1.6965756281787056e-06
979 1.6898867766341014e-06
980 1.6832242945320594e-06
981 1.6765880779635567e-06
982 1.6699780234121371e-06
983 1.6633940277825276e-06
984 1.6568359881883294e-06
985 1.6503038024599153e-06
986 1.6437973688038686e-06
987 1.6373165854163354e-06
988 1.6308613516426272e-06
989 1.6244315662223697e-06
990 1.6180271294449496e-06
991 1.6116479409221652e-06
992 1.6052939014616902e-06
993 1.5989649117656387e-06
994 1.5926608731010488e-06
995 1.586381687256653e-06
996 1.5801272561854194e-06
997 1.5738974823052756e-06
998 1.5676922683219906e-06
999 1.5615115178284287e-06
1000 1.5553551340686637e-06
1001 1.5492230209477051e-06
1002 1.5431150829472858e-06
1003 1.5370312248674685e-06
1004 1.5309713516244109e-06
1005 1.5249353686129732e-06
1006 1.5189231819055126e-06
1007 1.5129346976366225e-06
1008 1.5069698222352373e-06
1009 1.5010284627995619e-06
1010 1.4951105265449098e-06
1011 1.4892159213198772e-06
1012 1.4833445548816422e-06
1013 1.4774963357671035e-06
1014 1.4716711727683803e-06
1015 1.465868975016393e-06
1016 1.4600896517703913e-06
1017 1.4543331133363618e-06
1018 1.4485992694483735e-06
1019 1.4428880309275093e-06
1020 1.437199308466441e-06
1021 1.4315330134010457e-06
1022 1.4258890572488015e-06
1023 1.420267352245948e-06
1024 1.4146678103170333e-06
1025 1.4090903442816193e-06
1026 1.4035348669915008e-06
1027 1.3980012920011988e-06
1028 1.3924895328910892e-06
1029 1.3869995034070654e-06
1030 1.3815311184059086e-06
1031 1.3760842919956744e-06
1032 1.3706589396734305e-06
1033 1.365254976495867e-06
1034 1.3598723180192027e-06
1035 1.3545108808091348e-06
1036 1.349170580846452e-06
1037 1.343851334689638e-06
1038 1.338553059582208e-06
1039 1.3332756727752194e-06
1040 1.3280190919548106e-06
1041 1.3227832350442627e-06
1042 1.317568020491359e-06
1043 1.3123733666821994e-06
1044 1.3071991929675526e-06
1045 1.302045418053612e-06
1046 1.296911961953081e-06
1047 1.291798744540068e-06
1048 1.2867056857629178e-06
1049 1.2816327065254442e-06
1050 1.2765797272528745e-06
1051 1.2715466695399958e-06
1052 1.266533454449927e-06
1053 1.261540004089688e-06
1054 1.2565662405017252e-06
1055 1.2516120858113327e-06
1056 1.2466774630040123e-06
1057 1.2417622950319787e-06
1058 1.2368665050422516e-06
1059 1.2319900167373505e-06
1060 1.227132754023187e-06
1061 1.222294641331179e-06
1062 1.2174756028528917e-06
1063 1.2126755635998334e-06
1064 1.2078944484131309e-06
1065 1.2031321829128502e-06
1066 1.1983886928906777e-06
1067 1.193663903980429e-06
1068 1.1889577429252926e-06
1069 1.1842701357278093e-06
1070 1.1796010097189362e-06
1071 1.1749502918832808e-06
1072 1.1703179095710665e-06
1073 1.1657037906424183e-06
1074 1.1611078629942978e-06
1075 1.1565300550067595e-06
1076 1.1519702950499363e-06
1077 1.1474285122649001e-06
1078 1.1429046356472266e-06
1079 1.1383985944829851e-06
1080 1.1339103184803327e-06
1081 1.1294397379366941e-06
1082 1.124986782713745e-06
1083 1.1205513834976275e-06
1084 1.1161334710409782e-06
1085 1.1117329763979596e-06
1086 1.107349830935117e-06
1087 1.1029839662342943e-06
1088 1.0986353141975784e-06
1089 1.094303807021839e-06
1090 1.089989376802661e-06
1091 1.0856919567495023e-06
1092 1.0814114793580755e-06
1093 1.0771478779669755e-06
1094 1.072901086107761e-06
1095 1.0686710374756913e-06
1096 1.0644576660958978e-06
1097 1.0602609061346131e-06
1098 1.0560806922337747e-06
1099 1.051916959045174e-06
1100 1.0477696415085281e-06
1101 1.0436386752204541e-06
1102 1.039523995560245e-06
1103 1.0354255379946444e-06
1104 1.0313432392601617e-06
1105 1.0272770351791296e-06
1106 1.0232268622805545e-06
1107 1.0191926575311325e-06
1108 1.0151743579192735e-06
1109 1.0111719007584753e-06
1110 1.0071852233804852e-06
1111 1.003214264089446e-06
1112 9.992589604118885e-07
1113 9.953192508496081e-07
1114 9.913950739284124e-07
1115 9.874863683912282e-07
1116 9.835930733139305e-07
1117 9.797151276628317e-07
1118 9.758524712106839e-07
1119 9.720050437852624e-07
1120 9.681727847956658e-07
1121 9.64355635097445e-07
1122 9.605535346595498e-07
1123 9.567664244660024e-07
1124 9.529942451841083e-07
1125 9.49236938047362e-07
1126 9.45494444463247e-07
1127 9.417667058635876e-07
1128 9.380536643601367e-07
1129 9.343552615913747e-07
1130 9.306714404563149e-07
1131 9.270021429453736e-07
1132 9.233473119781453e-07