TITLE = "Residual History"
VARIABLES = "Iteration", "Residual Norm"
ZONE T="N=399", I=50000, F=POINT
0 0.08961666899969938
1 0.08720560341821325
2 0.08616538241740627
3 0.08542180624904869
4 0.08478400869724703
5 0.08419550898394684
6 0.08363436278359013
7 0.0830904479523615
8 0.08255850574183551
9 0.08203555329429667
10 0.08151977981591778
11 0.0810100245617438
12 0.0805055092956628
13 0.0800056920208715
14 0.07951018264943681
15 0.07901869217156755
16 0.07853100083687742
17 0.07804693757796906
18 0.07756636632204852
19 0.07708917665549578
20 0.07661527731538714
21 0.07614459156191852
22 0.07567705382964934
23 0.07521260726529526
24 0.0747512018910322
25 0.07429279321624688
26 0.07383734117551428
27 0.07338480930708856
28 0.07293516411090668
29 0.0724883745421073
30 0.07204441160793007
31 0.0716032480442552
32 0.07116485805405512
33 0.07072921709438548
34 0.07029630170173622
35 0.06986608934792231
36 0.06943855832046113
37 0.06901368762271154
38 0.06859145689006116
39 0.06817184631922248
40 0.06775483660829763
41 0.06734040890573502
42 0.0669285447666645
43 0.06651922611538709
44 0.06611243521301749
45 0.06570815462946324
46 0.06530636721906617
47 0.06490705609935046
48 0.06451020463241387
49 0.06411579640857862
50 0.0637238152319786
51 0.0633342451078119
52 0.06294707023103101
53 0.06256227497627678
54 0.062179843888892423
55 0.061799761676877604
56 0.061422013203662994
57 0.061046583481603724
58 0.060673457666102965
59 0.06030262105028965
60 0.05993405906018586
61 0.059567757250306344
62 0.05920370129964099
63 0.05884187700797651
64 0.05848227029252226
65 0.05812486718480407
66 0.057769653827800346
67 0.05741661647329316
68 0.0570657414794132
69 0.05671701530835825
70 0.05637042452426864
71 0.05602595579124369
72 0.055683595871485476
73 0.05534333162355825
74 0.05500515000075269
75 0.054669038049545135
76 0.054334982908142856
77 0.05400297180510843
78 0.05367299205805688
79 0.053345031072416275
80 0.053019076340250826
81 0.05269511543913811
82 0.05237313603109667
83 0.05205312586156051
84 0.05173507275839683
85 0.05141896463096273
86 0.0511047894691986
87 0.050792535342755636
88 0.05048219040015396
89 0.05017374286797082
90 0.049867181050054894
91 0.04956249332676573
92 0.0492596681542372
93 0.04895869406366234
94 0.04865955966059803
95 0.04836225362429002
96 0.048066764707014764
97 0.04777308173343798
98 0.047481193599989785
99 0.04719108927425339
100 0.04690275779436917
101 0.0466161882684503
102 0.04633136987401188
103 0.04604829185741189
104 0.0457669435333017
105 0.045487314284089045
106 0.04520939355940978
107 0.04493317087560924
108 0.04465863581523295
109 0.04438577802652572
110 0.04411458722293881
111 0.04384505318264488
112 0.04357716574806087
113 0.043310914825377224
114 0.043046290384094785
115 0.042783282456567526
116 0.04252188113755198
117 0.04226207658376281
118 0.0420038590134335
119 0.04174721870588394
120 0.04149214600109164
121 0.04123863129926998
122 0.0409866650604502
123 0.040736237804068556
124 0.04048734010855885
125 0.040239962610948116
126 0.039994096006458466
127 0.03974973104811165
128 0.039506858546338806
129 0.039265469368594014
130 0.03902555443897088
131 0.038787104737824596
132 0.03855011130139639
133 0.03831456522144228
134 0.03808045764486463
135 0.03784777977334838
136 0.03761652286299935
137 0.037386678223986884
138 0.03715823722018841
139 0.03693119126883923
140 0.036705531840183464
141 0.03648125045712803
142 0.03625833869490166
143 0.03603678818071446
144 0.03581659059342161
145 0.03559773766318936
146 0.03538022117116384
147 0.035164032949142936
148 0.03494916487925066
149 0.0347356088936131
150 0.034523356974039354
151 0.034312401151701546
152 0.034102733506820894
153 0.03389434616835367
154 0.0336872313136807
155 0.033481381168298706
156 0.033276788005514694
157 0.03307344414614164
158 0.03287134195819823
159 0.03267047385660738
160 0.03247083230290111
161 0.032272409804925545
162 0.032075198916547136
163 0.03187919223736284
164 0.03168438241241154
165 0.03149076213188737
166 0.03129832413085574
167 0.031107061188970712
168 0.030916966130194495
169 0.030728031822519427
170 0.030540251177691564
171 0.030353617150935697
172 0.0301681227406836
173 0.029983760988302362
174 0.029800524977826332
175 0.029618407835690173
176 0.029437402730463014
177 0.029257502872585914
178 0.029078701514110246
179 0.028900991948437173
180 0.028724367510060946
181 0.028548821574311753
182 0.028374347557101668
183 0.028200938914671094
184 0.028028589143339323
185 0.027857291779253272
186 0.027687040398140676
187 0.027517828615064556
188 0.027349650084177182
189 0.02718249849847851
190 0.02701636758957522
191 0.026851251127440065
192 0.02668714292017351
193 0.026524036813769282
194 0.026361926691877074
195 0.026200806475571044
196 0.026040670123116602
197 0.02588151162974072
198 0.025723325027403047
199 0.025566104384568456
200 0.025409843805981096
201 0.025254537432440455
202 0.025100179440577186
203 0.02494676404263294
204 0.024794285486240457
205 0.02464273805420262
206 0.02449211606427836
207 0.024342413868964356
208 0.02419362585528205
209 0.024045746444563497
210 0.0238987700922401
211 0.023752691287633024
212 0.0236075045537428
213 0.02346320444704226
214 0.023319785557270545
215 0.023177242507227646
216 0.023035569952571014
217 0.02289476258161268
218 0.022754815115117958
219 0.022615722306107103
220 0.022477478939654343
221 0.022340079832692792
222 0.022203519833816736
223 0.022067793823087944
224 0.02193289671184114
225 0.02179882344249226
226 0.02166556898834735
227 0.02153312835341208
228 0.021401496572203412
229 0.02127066870956198
230 0.021140639860465132
231 0.02101140514984311
232 0.020882959732393475
233 0.020755298792399155
234 0.02062841754354641
235 0.020502311228744685
236 0.020376975119945913
237 0.020252404517967938
238 0.02012859475231591
239 0.020005541181006985
240 0.01988323919039469
241 0.019761684194996104
242 0.019640871637317484
243 0.019520796987684243
244 0.019401455744068558
245 0.019282843431921683
246 0.01916495560400408
247 0.019047787840217604
248 0.018931335747440835
249 0.018815594959362195
250 0.018700561136315998
251 0.01858622996511926
252 0.018472597158909487
253 0.018359658456982748
254 0.018247409624634246
255 0.018135846452998462
256 0.018024964758890958
257 0.017914760384651427
258 0.0178052291979866
259 0.017696367091815345
260 0.017588169984114378
261 0.017480633817765042
262 0.017373754560399787
263 0.017267528204251585
264 0.017161950766002916
265 0.01705701828663655
266 0.016952726831286263
267 0.01684907248908931
268 0.01674605137303893
269 0.016643659619839813
270 0.016541893389761454
271 0.0164407488664947
272 0.016340222257008544
273 0.016240309791407538
274 0.016141007722789667
275 0.016042312327107077
276 0.015944219903025324
277 0.01584672677178436
278 0.015749829277060895
279 0.015653523784831477
280 0.01555780668323501
281 0.015462674382438762
282 0.015368123314502165
283 0.015274149933244626
284 0.015180750714110569
285 0.015087922154038846
286 0.014995660771331049
287 0.014903963105520116
288 0.014812825717241325
289 0.014722245188103533
290 0.014632218120559906
291 0.01454274113778212
292 0.014453810883532463
293 0.014365424022038257
294 0.0142775772378675
295 0.014190267235803855
296 0.014103490740723892
297 0.014017244497473446
298 0.013931525270745978
299 0.0138463298449624
300 0.013761655024148845
301 0.013677497631817793
302 0.013593854510849329
303 0.013510722523372473
304 0.013428098550647628
305 0.013345979492950202
306 0.013264362269453753
307 0.013183243818115281
308 0.013102621095560055
309 0.01302249107696814
310 0.012942850755960784
311 0.012863697144487788
312 0.01278502727271587
313 0.012706838188917373
314 0.012629126959359615
315 0.012551890668195271
316 0.012475126417352862
317 0.012398831326429067
318 0.012323002532579745
319 0.01224763719041367
320 0.01217273247188582
321 0.012098285566191011
322 0.012024293679659626
323 0.011950754035652478
324 0.011877663874456679
325 0.011805020453182977
326 0.011732821045662312
327 0.011661062942345214
328 0.011589743450198411
329 0.011518859892606287
330 0.011448409609268384
331 0.011378389956102087
332 0.011308798305142318
333 0.011239632044443606
334 0.011170888577982244
335 0.011102565325559711
336 0.011034659722705436
337 0.01096716922058106
338 0.010900091285885736
339 0.010833423400760323
340 0.010767163062693938
341 0.010701307784430316
342 0.010635855093874411
343 0.010570802534000293
344 0.010506147662759322
345 0.010441888052988412
346 0.010378021292319475
347 0.01031454498308906
348 0.010251456742249462
349 0.010188754201278209
350 0.01012643500609114
351 0.010064496816952909
352 0.010002937308390334
353 0.009941754169105308
354 0.009880945101888309
355 0.009820507823532602
356 0.009760440064748528
357 0.009700739570079279
358 0.00964140409781606
359 0.009582431419914494
360 0.009523819321911535
361 0.00946556560284174
362 0.009407668075156741
363 0.009350124564641401
364 0.009292932910334574
365 0.009236090964446522
366 0.00917959659227976
367 0.009123447672149213
368 0.00906764209530203
369 0.009012177765839943
370 0.0089570526006403
371 0.008902264529277785
372 0.008847811493948156
373 0.008793691449390365
374 0.00873990236281052
375 0.008686442213805944
376 0.008633308994289315
377 0.008580500708414212
378 0.008528015372500076
379 0.008475851014957965
380 0.008424005676217747
381 0.008372477408653276
382 0.00832126427651141
383 0.008270364355838182
384 0.008219775734408226
385 0.008169496511652137
386 0.008119524798586089
387 0.008069858717740958
388 0.008020496403092848
389 0.007971435999992059
390 0.007922675665095255
391 0.007874213566295533
392 0.007826047882654372
393 0.007778176804333563
394 0.007730598532527692
395 0.007683311279396768
396 0.007636313267999391
397 0.007589602732225983
398 0.007543177916734124
399 0.007497037076881408
400 0.007451178478661309
401 0.007405600398637721
402 0.007360301123881111
403 0.007315278951904084
404 0.007270532190598091
405 0.007226059158170001
406 0.007181858183079091
407 0.00713792760397528
408 0.007094265769636578
409 0.007050871038906843
410 0.007007741780635917
411 0.0069648763736171486
412 0.0069222732065279055
413 0.0068799306778683225
414 0.006837847195903247
415 0.006796021178600489
416 0.006754451053573549
417 0.006713135258021705
418 0.00667207223867253
419 0.006631260451723318
420 0.006590698362783154
421 0.006550384446816324
422 0.006510317188085138
423 0.006470495080092554
424 0.00643091662552702
425 0.006391580336205731
426 0.006352484733018934
427 0.006313628345875688
428 0.006275009713647979
429 0.00623662738411621
430 0.006198479913915664
431 0.006160565868481206
432 0.006122883821995255
433 0.006085432357334031
434 0.006048210066013541
435 0.006011215548138337
436 0.005974447412348501
437 0.005937904275768251
438 0.005901584763953103
439 0.005865487510839869
440 0.005829611158695059
441 0.00579395435806357
442 0.0057585157677191474
443 0.005723294054614403
444 0.005688287893829563
445 0.005653495968524776
446 0.005618916969889743
447 0.0055845495970954125
448 0.005550392557244643
449 0.005516444565324697
450 0.005482704344159456
451 0.005449170624359733
452 0.005415842144278619
453 0.005382717649962607
454 0.005349795895104421
455 0.005317075640998386
456 0.005284555656491803
457 0.005252234717940861
458 0.0052201116091634015
459 0.005188185121394679
460 0.0051564540532416095
461 0.00512491721063751
462 0.0050935734067987775
463 0.0050624214621787485
464 0.005031460204425355
465 0.005000688468336027
466 0.004970105095814871
467 0.0049397089358291105
468 0.004909498844366091
469 0.004879473684390783
470 0.004849632325802919
471 0.004819973645395031
472 0.004790496526810014
473 0.004761199860500376
474 0.004732082543685641
475 0.004703143480312095
476 0.004674381581010715
477 0.004645795763058142
478 0.004617384950334254
479 0.004589148073283289
480 0.004561084068873797
481 0.004533191880557809
482 0.004505470458232872
483 0.004477918758202129
484 0.004450535743134263
485 0.004423320382026745
486 0.004396271650165848
487 0.0043693885290889255
488 0.004342670006545911
489 0.004316115076462009
490 0.0042897227388996135
491 0.004263492000021511
492 0.004237421872052979
493 0.0042115113732455476
494 0.0041857595278399036
495 0.004160165366029288
496 0.004134727923923935
497 0.0041094462435145715
498 0.004084319372636089
499 0.004059346364933047
500 0.004034526279823497
501 0.004009858182464031
502 0.00398534114371487
503 0.003960974240105287
504 0.003936756553798628
505 0.003912687172558414
506 0.0038887651897141578
507 0.0038649897041276343
508 0.0038413598201583236
509 0.0038178746476311386
510 0.003794533301802316
511 0.003771334903326877
512 0.0037482785782250094
513 0.003725363457850253
514 0.003702588678856354
515 0.0036799533831653273
516 0.0036574567179354727
517 0.0036350978355288383
518 0.003612875893480548
519 0.0035907900544664174
520 0.0035688394862718785
521 0.0035470233617609518
522 0.003525340858845797
523 0.0035037911604547884
524 0.0034823734545029435
525 0.0034610869338615106
526 0.0034399307963267445
527 0.0034189042445919105
528 0.0033980064862148456
529 0.003377236733591048
530 0.0033565942039218257
531 0.00333607811918668
532 0.0033156877061135703
533 0.003295422196149718
534 0.0032752808254331678
535 0.003255262834764908
536 0.0032353674695789632
537 0.003215593979915177
538 0.0031959416203912144
539 0.0031764096501745095
540 0.0031569973329537804
541 0.003137703936913168
542 0.0031185287347033365
543 0.0030994710034144696
544 0.0030805300245501216
545 0.0030617050839995973
546 0.0030429954720114704
547 0.003024400483166613
548 0.003005919416352636
549 0.0029875515747368226
550 0.002969296265740482
551 0.0029511528010132348
552 0.0029331204964064186
553 0.0029151986719489005
554 0.0028973866518197705
555 0.002879683764324835
556 0.002862089341870378
557 0.0028446027209388033
558 0.0028272232420630617
559 0.0028099502498029755
560 0.0027927830927195344
561 0.002775721123351447
562 0.0027587636981912136
563 0.0027419101776592005
564 0.002725159926081974
565 0.002708512311666964
566 0.0026919667064792944
567 0.0026755224864186064
568 0.0026591790311952137
569 0.0026429357243073067
570 0.0026267919530174335
571 0.0026107471083294206
572 0.0025948005849665873
573 0.0025789517813479836
574 0.0025632000995665866
575 0.002547544945366501
576 0.0025319857281206485
577 0.0025165218608093564
578 0.002501152759997211
579 0.0024858778458127385
580 0.0024706965419250965
581 0.0024556082755237026
582 0.002440612477296184
583 0.0024257085814067816
584 0.0024108960254765025
585 0.0023961742505601994
586 0.0023815427011273094
587 0.0023670008250396613
588 0.002352548073532165
589 0.002338183901191264
590 0.002323907765934341
591 0.0023097191289908055
592 0.0022956174548799334
593 0.0022816022113928557
594 0.0022676728695713044
595 0.0022538289036877247
596 0.0022400697912264766
597 0.0022263950128634433
598 0.0022128040524474193
599 0.002199296396979785
600 0.0021858715365959927
601 0.002172528964546052
602 0.002159268177176351
603 0.0021460886739092153
604 0.0021329899572260376
605 0.002119971532647485
606 0.0021070329087147883
607 0.002094173596972296
608 0.0020813931119481534
609 0.0020686909711373166
610 0.002056066694981835
611 0.00204351980685453
612 0.0020310498330399
613 0.002018656302717649
614 0.002006338747943314
615 0.0019940967036319946
616 0.0019819297075412403
617 0.0019698373002522596
618 0.0019578190251541196
619 0.0019458744284255247
620 0.0019340030590191087
621 0.0019222044686429773
622 0.0019104782117451294
623 0.001898823845496426
624 0.0018872409297734912
625 0.0018757290271429554
626 0.0018642877028446113
627 0.0018529165247750258
628 0.0018416150634721522
629 0.0018303828920975343
630 0.0018192195864227094
631 0.0018081247248109453
632 0.0017970978882028788
633 0.0017861386601004177
634 0.0017752466265509347
635 0.0017644213761322865
636 0.0017536624999365414
637 0.001742969591555411
638 0.0017323422470648456
639 0.0017217800650092061
640 0.0017112826463875053
641 0.001700849594637206
642 0.0016904805156198685
643 0.001680175017606775
644 0.0016699327112634456
645 0.0016597532096353246
646 0.0016496361281339023
647 0.0016395810845211138
648 0.0016295876988959024
649 0.0016196555936796673
650 0.001609784393602278
651 0.0015999737256876484
652 0.0015902232192402054
653 0.0015805325058302028
654 0.0015709012192812247
655 0.0015613289956548672
656 0.001551815473238211
657 0.0015423602925302207
658 0.001532963096227337
659 0.0015236235292110814
660 0.001514341238534245
661 0.0015051158734075126
662 0.001495947085186912
663 0.0014868345273602126
664 0.0014777778555335327
665 0.0014687767274200124
666 0.0014598308028246328
667 0.0014509397436336955
668 0.0014421032138006
669 0.0014333208793341112
670 0.001424592408285103
671 0.0014159174707347138
672 0.0014072957387818734
673 0.001398726886530503
674 0.0013902105900780047
675 0.00138174652750237
676 0.0013733343788505472
677 0.0013649738261270498
678 0.001356664553280047
679 0.0013484062461918815
680 0.0013401985926651016
681 0.0013320412824132195
682 0.0013239340070459807
683 0.0013158764600609118
684 0.0013078683368293854
685 0.0012999093345865654
686 0.0012919991524196176
687 0.0012841374912562148
688 0.001276324053853524
689 0.0012685585447872378
690 0.0012608406704400763
691 0.0012531701389909488
692 0.001245546660404165
693 0.0012379699464180774
694 0.0012304397105348417
695 0.0012229556680090122
696 0.0012155175358376698
697 0.0012081250327488416
698 0.0012007778791919821
699 0.001193475797326143
700 0.0011862185110109742
701 0.0011790057457950747
702 0.0011718372289069266
703 0.0011647126892436045
704 0.0011576318573608831
705 0.0011505944654637695
706 0.001143600247395099
707 0.0011366489386267881
708 0.0011297402762496154
709 0.0011228739989627306
710 0.0011160498470644093
711 0.0011092675624423307
712 0.0011025268885633424
713 0.0010958275704646375
714 0.0010891693547433485
715 0.0010825519895475003
716 0.0010759752245661969
717 0.0010694388110210615
718 0.0010629425016554486
719 0.0010564860507265193
720 0.0010500692139954863
721 0.0010436917487181053
722 0.0010373534136358651
723 0.001031053968967312
724 0.0010247931763981196
725 0.0010185707990727764
726 0.0010123866015854662
727 0.0010062403499719065
728 0.0010001318116988752
729 0.000994060755657467
730 0.000988026952152978
731 0.0009820301728968234
732 0.0009760701909978623
733 0.0009701467809540014
734 0.0009642597186437081
735 0.0009584087813170512
736 0.0009525937475880681
737 0.0009468143974259308
738 0.0009410705121473716
739 0.0009353618744071586
740 0.0009296882681912294
741 0.0009240494788077747
742 0.0009184452928798337
743 0.0009128754983362109
744 0.0009073398844047894
745 0.0009018382416035124
746 0.0008963703617333928
747 0.000890936037869798
748 0.0008855350643553674
749 0.0008801672367917372
750 0.0008748323520324088
751 0.0008695302081750193
752 0.0008642606045528024
753 0.0008590233417286303
754 0.0008538182214861427
755 0.0008486450468228993
756 0.0008435036219430465
757 0.0008383937522494111
758 0.0008333152443370671
759 0.0008282679059849952
760 0.0008232515461496399
761 0.0008182659749575923
762 0.0008133110036981281
763 0.0008083864448164642
764 0.0008034921119061674
765 0.0007986278197026327
766 0.0007937933840763071
767 0.0007889886220248997
768 0.0007842133516677438
769 0.0007794673922371571
770 0.0007747505640736362
771 0.0007700626886178927
772 0.0007654035884040148
773 0.0007607730870536491
774 0.0007561710092687388
775 0.000751597180824545
776 0.0007470514285644499
777 0.0007425335803921231
778 0.0007380434652654284
779 0.0007335809131900154
780 0.0007291457552134362
781 0.0007247378234180063
782 0.0007203569509140352
783 0.0007160029718356888
784 0.0007116757213320513
785 0.0007073750355631878
786 0.0007031007516923991
787 0.0006988527078806659
788 0.0006946307432805
789 0.0006904346980307211
790 0.0006862644132485699
791 0.0006821197310253045
792 0.0006780004944198037
793 0.0006739065474524064
794 0.0006698377350996119
795 0.0006657939032870734
796 0.000661774898885264
797 0.0006577805697031764
798 0.0006538107644815496
799 0.0006498653328884348
800 0.0006459441255138165
801 0.0006420469938621918
802 0.0006381737903485633
803 0.0006343243682930588
804 0.0006304985819134363
805 0.0006266962863217051
806 0.0006229173375180076
807 0.0006191615923842422
808 0.0006154289086802658
809 0.0006117191450373021
810 0.0006080321609529696
811 0.0006043678167863943
812 0.0006007259737525215
813 0.0005971064939161972
814 0.0005935092401890195
815 0.0005899340763217821
816 0.0005863808669012844
817 0.0005828494773434676
818 0.000579339773889708
819 0.0005758516236017831
820 0.0005723848943555277
821 0.0005689394548371114
822 0.0005655151745376461
823 0.0005621119237485503
824 0.0005587295735557024
825 0.0005553679958359782
826 0.0005520270632513371
827 0.000548706649244664
828 0.0005454066280345301
829 0.0005421268746104412
830 0.0005388672647287333
831 0.0005356276749073982
832 0.0005324079824211897
833 0.0005292080652977517
834 0.0005260278023117659
835 0.000522867072982504
836 0.0005197257575666129
837 0.000516603737055847
838 0.0005135008931712486
839 0.0005104171083590658
840 0.0005073522657865281
841 0.000504306249337237
842 0.0005012789436069631
843 0.0004982702338985385
844 0.0004952800062186046
845 0.0004923081472731418
846 0.0004893545444620639
847 0.00048641908587645236
848 0.00048350166029311164
849 0.00048060215717141066
850 0.0004777204666484628
851 0.0004748564795349191
852 0.0004720100873111324
853 0.0004691811821234241
854 0.0004663696567787298
855 0.0004635754047422687
856 0.0004607983201319211
857 0.00045803829771560236
858 0.0004552952329058632
859 0.0004525690217576462
860 0.0004498595609623511
861 0.00044716674784610295
862 0.0004444904803640791
863 0.00044183065709745413
864 0.00043918717724952686
865 0.0004365599406420881
866 0.00043394884771081704
867 0.00043135379950283296
868 0.0004287746976715535
869 0.0004262114444741644
870 0.00042366394276697436
871 0.0004211320960026417
872 0.0004186158082256486
873 0.00041611498406939496
874 0.0004136295287522097
875 0.0004111593480737854
876 0.0004087043484114948
877 0.00040626443671765616
878 0.00040383952051458214
879 0.0004014295078925892
880 0.0003990343075051806
881 0.00039665382856721144
882 0.00039428798084959496
883 0.0003919366746772479
884 0.0003895998209249273
885 0.0003872773310143831
886 0.0003849691169107143
887 0.0003826750911195377
888 0.0003803951666823246
889 0.0003781292571752011
890 0.0003758772767037951
891 0.0003736391399005925
892 0.0003714147619227808
893 0.0003692040584468525
894 0.00036700694566792994
895 0.0003648233402942036
896 0.00036265315954569306
897 0.00036049632114966505
898 0.00035835274333917416
899 0.00035622234484776716
900 0.0003541050449086399
901 0.00035200076325022164
902 0.0003499094200929132
903 0.0003478309361475985
904 0.00034576523261124097
905 0.00034371223116413686
906 0.00034167185396751583
907 0.00033964402366000847
908 0.00033762866335503667
909 0.0003356256966378959
910 0.0003336350475625952
911 0.000331656640649244
912 0.00032969040088124047
913 0.0003277362537021304
914 0.00032579412501298707
915 0.0003238639411699952
916 0.0003219456289805801
917 0.00032003911570170596
918 0.00031814432903669196
919 0.00031626119713244256
920 0.0003143896485769299
921 0.0003125296123961776
922 0.00031068101805174753
923 0.0003088437954384562
924 0.00030701787488059167
925 0.00030520318713089085
926 0.000303399663366194
927 0.0003016072351864111
928 0.0002998258346106187
929 0.00029805539407551693
930 0.0002962958464319928
931 0.0002945471249438506
932 0.0002928091632831674
933 0.00029108189553025835
934 0.0002893652561690904
935 0.00028765918008639296
936 0.00028596360256786244
937 0.0002842784592968327
938 0.000282603686350839
939 0.0002809392202003047
940 0.0002792849977049702
941 0.00027764095611237244
942 0.0002760070330548124
943 0.00027438316654776636
944 0.00027276929498675216
945 0.0002711653571458623
946 0.0002695712921738765
947 0.0002679870395940446
948 0.00026641253930012934
949 0.00026484773155516765
950 0.0002632925569883141
951 0.0002617469565934777
952 0.00026021087172650725
953 0.00025868424410276856
954 0.00025716701579592776
955 0.000255659129234604
956 0.00025416052720114387
957 0.000252671152828597
958 0.0002511909495989174
959 0.0002497198613414024
960 0.00024825783222948015
961 0.00024680480677970494
962 0.00024536072984828085
963 0.00024392554663055571
964 0.00024249920265772198
965 0.0002410816437951777
966 0.00023967281624080196
967 0.00023827266652249734
968 0.00023688114149590105
969 0.00023549818834301176
970 0.00023412375457022562
971 0.00023275778800535663
972 0.0002314002367967781
973 0.0002300510494107424
974 0.00022871017462997245
975 0.00022737756155115742
976 0.00022605315958320113
977 0.00022473691844582318
978 0.00022342878816696698
979 0.0002221287190806818
980 0.00022083666182663787
981 0.00021955256734649753
982 0.00021827638688328463
983 0.00021700807197916642
984 0.00021574757447350795
985 0.00021449484650070433
986 0.00021324984048929878
987 0.00021201250915945118
988 0.00021078280552101354
989 0.0002095606828726905
990 0.00020834609479914614
991 0.00020713899516978232
992 0.00020593933813727462
993 0.00020474707813498223
994 0.0002035621698762146
995 0.00020238456835173444
996 0.00020121422882821423
997 0.0002000511068470755
998 0.00019889515822184007
999 0.00019774633903756164
1000 0.000196604605647983
1001 0.00019546991467529333
1002 0.00019434222300663854
1003 0.00019322148779456506
1004 0.00019210766645323562
1005 0.0001910007166587953
1006 0.0001899005963466774
1007 0.00018880726370981287
1008 0.00018772067719776867
1009 0.00018664079551507064
1010 0.00018556757761869008
1011 0.00018450098271798586
1012 0.0001834409702715363
1013 0.00018238749998722458
1014 0.00018134053181915712
1015 0.0001803000259673965
1016 0.00017926594287579205
1017 0.00017823824323050775
1018 0.00017721688795886942
1019 0.00017620183822718925
1020 0.00017519305544035999
1021 0.00017419050123944119
1022 0.00017319413750007488
1023 0.000172203926332401
1024 0.0001712198300780828
1025 0.0001702418113096776
1026 0.00016926983282905607
1027 0.00016830385766588695
1028 0.00016734384907611766
1029 0.00016638977054101746
1030 0.00016544158576593974
1031 0.00016449925867760806
1032 0.00016356275342393114
1033 0.00016263203437311515
1034 0.00016170706611069786
1035 0.00016078781343928372
1036 0.00015987424137739798
1037 0.00015896631515716856
1038 0.00015806400022409315
1039 0.00015716726223471587
1040 0.0001562760670560745
1041 0.00015539038076425494
1042 0.00015451016964266112
1043 0.00015363540018176143
1044 0.00015276603907592789
1045 0.00015190205322435584
1046 0.00015104340972830918
1047 0.00015019007589057542
1048 0.00014934201921387995
1049 0.00014849920739968926
1050 0.00014766160834740725
1051 0.00014682919015207596
1052 0.00014600192110479504
1053 0.00014517976969002366
1054 0.00014436270458504776
1055 0.0001435506946585723
1056 0.00014274370897034174
1057 0.00014194171676824526
1058 0.00014114468748897948
1059 0.00014035259075600979
1060 0.0001395653963778146
1061 0.0001387830743481772
1062 0.00013800559484401477
1063 0.00013723292822428966
1064 0.0001364650450295033
1065 0.00013570191597991646
1066 0.00013494351197437338
1067 0.00013418980409021043
1068 0.00013344076358085664
1069 0.0001326963618756614
1070 0.00013195657057818273
1071 0.00013122136146550105
1072 0.00013049070648722805
1073 0.0001297645777642217
1074 0.00012904294758691933
1075 0.00012832578841569944
1076 0.00012761307287866152
1077 0.00012690477377115994
1078 0.00012620086405436317
1079 0.0001255013168543626
1080 0.0001248061054614622
1081 0.0001241152033290668
1082 0.0001234285840716722
1083 0.00012274622146566172
1084 0.00012206808944707315
1085 0.00012139416211043557
1086 0.00012072441370879702
1087 0.00012005881865166524
1088 0.0001193973515053894
1089 0.00011873998699008889
1090 0.00011808669998087937
1091 0.00011743746550574987
1092 0.00011679225874470397
1093 0.0001161510550292887
1094 0.00011551382984069222
1095 0.00011488055881007914
1096 0.00011425121771656251
1097 0.00011362578248714926
1098 0.00011300422919495038
1099 0.00011238653405902354
1100 0.00011177267344300111
1101 0.00011116262385450727
1102 0.00011055636194383949
1103 0.00010995386450391021
1104 0.00010935510846809473
1105 0.000108760070910666
1106 0.00010816872904504226
1107 0.00010758106022309257
1108 0.00010699704193452378
1109 0.00010641665180578971
1110 0.00010583986759946898
1111 0.00010526666721322451
1112 0.0001046970286786041
1113 0.00010413093016141093
1114 0.00010356834995942276
1115 0.00010300926650214312
1116 0.00010245365835101441
1117 0.00010190150419619192
1118 0.00010135278285842375
1119 0.0001008074732863085
1120 0.00010026555455640099
1121 9.972700587206301e-05
1122 9.919180656303654e-05
1123 9.865993608426283e-05
1124 9.81313740153493e-05
1125 9.760610005960715e-05
1126 9.708409404368355e-05
1127 9.656533591569554e-05
1128 9.604980574635515e-05
1129 9.553748372651128e-05
1130 9.502835016662993e-05
1131 9.4522385497571e-05
1132 9.40195702672258e-05
1133 9.351988514257162e-05
1134 9.30233109069259e-05
1135 9.25298284599647e-05
1136 9.203941881692121e-05
1137 9.155206310804343e-05
1138 9.106774257768606e-05
1139 9.058643858329229e-05
1140 9.010813259558016e-05
1141 8.963280619686564e-05
1142 8.91604410806631e-05
1143 8.869101905161309e-05
1144 8.822452202385444e-05
1145 8.776093202095168e-05
1146 8.73002311746648e-05
1147 8.68424017257202e-05
1148 8.638742602033263e-05
1149 8.593528651269541e-05
1150 8.548596576219539e-05
1151 8.503944643357711e-05
1152 8.459571129630563e-05
1153 8.415474322343007e-05
1154 8.371652519155184e-05
1155 8.328104027962145e-05
1156 8.284827166844989e-05
1157 8.241820264097927e-05
1158 8.199081657955879e-05
1159 8.156609696789983e-05
1160 8.114402738837886e-05
1161 8.072459152223714e-05
1162 8.030777314924344e-05
1163 7.989355614655638e-05
1164 7.948192448843467e-05
1165 7.907286224526571e-05
1166 7.866635358327564e-05
1167 7.826238276445887e-05
1168 7.786093414459985e-05
1169 7.746199217368667e-05
1170 7.70655413955644e-05