TITLE = "Residual History"
VARIABLES = "Iteration", "Residual Norm"
ZONE T="N=99", I=7640, F=POINT
0 0.6400254371688306
1 0.5802656864190255
2 0.5291118401150556
3 0.48320225068045575
4 0.4415496768477307
5 0.40360815324384386
6 0.36898128240204214
7 0.33734618002531436
8 0.3084259213961777
9 0.2819768752588499
10 0.2577817091016492
11 0.2356449455508813
12 0.21538983307721338
13 0.19685597519730536
14 0.17989744077433487
15 0.16438120388770494
16 0.15018582369985548
17 0.13720030759571902
18 0.12532311947216115
19 0.11446130623167364
20 0.10452972261733978
21 0.09545033923282002
22 0.08715162185286607
23 0.07956797247433903
24 0.07263922429658823
25 0.06631018414459351
26 0.06053021688018278
27 0.055252867165872716
28 0.05043551460669593
29 0.0460390588355955
30 0.042027631554654984
31 0.03836833291742469
32 0.03503098995171645
33 0.031987934988769014
34 0.02921380229235574
35 0.026685341277074517
36 0.02438124487415283
37 0.022281991749991112
38 0.020369701210864337
39 0.018627999739603607
40 0.017041898209019107
41 0.015597678904281752
42 0.014282791564047746
43 0.01308575771915091
44 0.011996082669347458
45 0.011004174493816537
46 0.01010126954074024
47 0.00927936388599252
48 0.008531150291378579
49 0.007849960229512376
50 0.007229710575769707
51 0.006664854598212584
52 0.00615033690434204
53 0.005681552029286573
54 0.005254306373896959
55 0.004864783223418764
56 0.004509510598157281
57 0.004185331707015555
58 0.0038893777930857757
59 0.0036190431776981684
60 0.0033719623255334436
61 0.003145988768595111
62 0.0029391757410289713
63 0.0027497583899235567
64 0.002576137439343588
65 0.0024168641958746454
66 0.0022706267939241933
67 0.0021362375879190394
68 0.002012621606408306
69 0.0018988059899778067
70 0.0017939103408838798
71 0.0016971379175287648
72 0.0016077676114060072
73 0.0015251466481016156
74 0.001448683957402629
75 0.001377844160694979
76 0.0013121421266809625
77 0.0012511380491290948
78 0.0011944330029162848
79 0.0011416649371115792
80 0.0010925050662894695
81 0.0010466546236903723
82 0.0010038419422499284
83 0.0009638198319080641
84 0.0009263632239778196
85 0.000891267055662596
86 0.0008583443700769754
87 0.0008274246092998974
88 0.0007983520800852345
89 0.0007709845738168646
90 0.0007451921241723214
91 0.0007208558876670183
92 0.0006978671338662547
93 0.000676126333491926
94 0.0006555423339909377
95 0.0006360316133180127
96 0.00061751760375238
97 0.0005999300785245504
98 0.0005832045948601278
99 0.000567281987799528
100 0.000552107909785657
101 0.0005376324115952605
102 0.0005238095606704485
103 0.0005105970933465226
104 0.0004979560978449945
105 0.00048585072522517545
106 0.00047424792577759376
107 0.000463117208591463
108 0.0004524304222431408
109 0.0004421615547532115
110 0.00043228655112512946
111 0.0004227831469329446
112 0.0004136307165604298
113 0.00040481013481803106
114 0.00039630365077089966
115 0.00038809477271204324
116 0.00038016816330837774
117 0.0003725095440216324
118 0.000365105607993334
119 0.00035794394063915684
120 0.000351012947273042
121 0.0003443017871310725
122 0.0003378003132233062
123 0.0003314990174899647
124 0.0003253889807827987
125 0.000319461827236313
126 0.00031370968262810006
127 0.00030812513636835955
128 0.0003027012067844032
129 0.00029743130940150915
130 0.000292309227945217
131 0.00028732908781649324
132 0.00028248533181255184
133 0.0002777726978902389
134 0.0002731861987821092
135 0.00026872110329902724
136 0.00026437291916591045
137 0.0002601373772480685
138 0.0002560104170478067
139 0.0002519881733532694
140 0.00024806696393570173
141 0.0002442432782053476
142 0.00024051376673815998
143 0.00023687523159709474
144 0.0002333246173786837
145 0.00022985900292347262
146 0.00022647559363011714
147 0.00022317171432386897
148 0.00021994480263292225
149 0.0002167924028274746
150 0.00021371216008551878
151 0.0002107018151498474
152 0.00020775919934263185
153 0.00020488222991192593
154 0.00020206890567995054
155 0.00019931730297401734
156 0.00019662557181221606
157 0.00019399193233038815
158 0.0001914146714279763
159 0.0001888921396164864
160 0.0001864227480583229
161 0.00018400496578044768
162 0.00018163731704741863
163 0.00017931837888855758
164 0.00017704677876186417
165 0.00017482119235077726
166 0.00017264034147962195
167 0.00017050299214380334
168 0.0001684079526445415
169 0.0001663540718231489
170 0.00016434023738480486
171 0.00016236537431125382
172 0.0001604284433521667
173 0.0001585284395930748
174 0.00015666439109308578
175 0.0001548353575894387
176 0.0001530404292656413
177 0.00015127872557578625
178 0.00014954939412697047
179 0.0001478516096111409
180 0.00014618457278805868
181 0.0001445475095124888
182 0.0001429396698070525
183 0.00014136032697469072
184 0.0001398087767503722
185 0.00013828433649022768
186 0.00013678634439536866
187 0.0001353141587677187
188 0.00013386715729853314
189 0.00013244473638585172
190 0.00013104631048011818
191 0.0001296713114566507
192 0.0001283191880134011
193 0.00012698940509349812
194 0.0001256814433290826
195 0.00012439479850973352
196 0.00012312898106880268
197 0.00012188351559219581
198 0.00012065794034380145
199 0.00011945180681095922
200 0.0001182646792655566
201 0.00011709613434348934
202 0.0001159457606370676
203 0.00011481315830583692
204 0.00011369793869926955
205 0.00011259972399372517
206 0.00011151814684388461
207 0.00011045285004527026
208 0.00010940348620965592
209 0.00010836971745188367
210 0.00010735121508833864
211 0.00010634765934417381
212 0.0001053587390744163
213 0.00010438415149085816
214 0.00010342360190147712
215 0.00010247680345669968
216 0.00010154347690646198
217 0.00010062335036416349
218 9.971615907883274e-05
219 9.882164521634847e-05
220 9.793955764563915e-05
221 9.706965173535998e-05
222 9.621168915421864e-05
223 9.536543768036739e-05
224 9.453067101635895e-05
225 9.370716860916602e-05
226 9.289471547861381e-05
227 9.209310204937274e-05
228 9.130212398949147e-05
229 9.052158205379346e-05
230 8.975128193279006e-05
231 8.899103410733075e-05
232 8.824065370530975e-05
233 8.749996036697352e-05
234 8.676877811050937e-05
235 8.604693520535383e-05
236 8.533426404809241e-05
237 8.463060104160362e-05
238 8.393578648065274e-05
239 8.324966443768657e-05
240 8.2572082655206e-05
241 8.190289244107121e-05
242 8.124194856500567e-05
243 8.058910916173932e-05
244 7.994423563378448e-05
245 7.9307192560691e-05
246 7.86778476081977e-05
247 7.805607144233489e-05
248 7.744173764493639e-05
249 7.683472263294223e-05
250 7.623490557878347e-05
251 7.564216833502865e-05
252 7.505639535974538e-05
253 7.447747364522524e-05
254 7.390529264847084e-05
255 7.333974422433779e-05
256 7.278072255981873e-05
257 7.222812411171913e-05
258 7.168184754421169e-05
259 7.114179367139154e-05
260 7.060786539778698e-05
261 7.007996766413418e-05
262 6.955800739287738e-05
263 6.904189343590408e-05
264 6.853153652334768e-05
265 6.802684921516786e-05
266 6.752774585290197e-05
267 6.703414251342156e-05
268 6.65459569639146e-05
269 6.606310861886829e-05
270 6.558551849773145e-05
271 6.511310918295934e-05
272 6.46458047820744e-05
273 6.418353088717438e-05
274 6.372621453914106e-05
275 6.327378419038695e-05
276 6.282616966980238e-05
277 6.238330214874556e-05
278 6.194511410757723e-05
279 6.151153930372908e-05
280 6.108251274067237e-05
281 6.065797063658948e-05
282 6.023785039613991e-05
283 5.9822090580308856e-05
284 5.9410630880475196e-05
285 5.900341208958786e-05
286 5.860037607738591e-05
287 5.8201465764082766e-05
288 5.7806625095762724e-05
289 5.741579902033996e-05
290 5.702893346464067e-05
291 5.6645975310791775e-05
292 5.626687237502779e-05
293 5.589157338589974e-05
294 5.552002796339555e-05
295 5.515218659848231e-05
296 5.4788000633943755e-05
297 5.4427422244619165e-05
298 5.407040441898899e-05
299 5.371690094175204e-05
300 5.3366866374718505e-05
301 5.302025604098545e-05
302 5.267702600751097e-05
303 5.233713306953306e-05
304 5.2000534734148044e-05
305 5.166718920543309e-05
306 5.13370553690572e-05
307 5.10100927777285e-05
308 5.0686261637900726e-05
309 5.0365522794595446e-05
310 5.004783771946113e-05
311 4.973316849618492e-05
312 4.9421477809025466e-05
313 4.9112728929683e-05
314 4.880688570556948e-05
315 4.8503912547782266e-05
316 4.8203774419958376e-05
317 4.7906436826555666e-05
318 4.761186580251578e-05
319 4.7320027902579235e-05
320 4.7030890190911546e-05
321 4.674442023056941e-05
322 4.6460586074341285e-05
323 4.617935625446556e-05
324 4.590069977432064e-05
325 4.562458609847705e-05
326 4.535098514336308e-05
327 4.5079867270134634e-05
328 4.4811203274702526e-05
329 4.4544964380816705e-05
330 4.428112223049285e-05
331 4.401964887749935e-05
332 4.3760516779025484e-05
333 4.350369878833794e-05
334 4.32491681473586e-05
335 4.299689847982917e-05
336 4.274686378385481e-05
337 4.249903842611421e-05
338 4.225339713368357e-05
339 4.200991498863546e-05
340 4.176856742163165e-05
341 4.152933020571957e-05
342 4.1292179449401956e-05
343 4.105709159185505e-05
344 4.0824043397215936e-05
345 4.059301194732964e-05
346 4.036397463844851e-05
347 4.013690917374747e-05
348 3.991179355994799e-05
349 3.96886061003531e-05
350 3.9467325391824156e-05
351 3.9247930317601424e-05
352 3.9030400044189626e-05
353 3.881471401550637e-05
354 3.86008519497778e-05
355 3.838879383303043e-05
356 3.8178519916209646e-05
357 3.797001071033328e-05
358 3.7763246982011974e-05
359 3.755820974952089e-05
360 3.735488027889837e-05
361 3.715324007999343e-05
362 3.695327090196356e-05
363 3.6754954730158356e-05
364 3.6558273782473687e-05
365 3.636321050459492e-05
366 3.6169747567845645e-05
367 3.5977867864517994e-05
368 3.578755450547081e-05
369 3.559879081568277e-05
370 3.541156033183008e-05
371 3.522584679852828e-05
372 3.504163416546544e-05
373 3.485890658420726e-05
374 3.467764840466898e-05
375 3.4497844173637364e-05
376 3.4319478629104837e-05
377 3.414253670074733e-05
378 3.396700350432876e-05
379 3.379286434042197e-05
380 3.362010469123343e-05
381 3.344871021801026e-05
382 3.327866675852315e-05
383 3.310996032426047e-05
384 3.2942577098172646e-05
385 3.277650343168335e-05
386 3.2611725843545746e-05
387 3.244823101561932e-05
388 3.2286005792141874e-05
389 3.212503717647362e-05
390 3.196531232952375e-05
391 3.180681856676337e-05
392 3.164954335676341e-05
393 3.1493474318382305e-05
394 3.133859921971882e-05
395 3.118490597482231e-05
396 3.103238264252503e-05
397 3.0881017424061906e-05
398 3.0730798661412584e-05
399 3.0581714834865763e-05
400 3.0433754561587236e-05
401 3.028690659368988e-05
402 3.0141159816511548e-05
403 2.9996503246388838e-05
404 2.9852926029299582e-05
405 2.9710417438979998e-05
406 2.9568966875224475e-05
407 2.942856386227385e-05
408 2.9289198047136305e-05
409 2.9150859198034172e-05
410 2.9013537202457646e-05
411 2.887722206566196e-05
412 2.87419039101499e-05
413 2.8607572972742215e-05
414 2.847421960347227e-05
415 2.8341834264693825e-05
416 2.8210407529149145e-05
417 2.80799300784303e-05
418 2.7950392702130503e-05
419 2.78217862955312e-05
420 2.7694101859426854e-05
421 2.7567330497990302e-05
422 2.7441463417157157e-05
423 2.7316491924475124e-05
424 2.719240742684004e-05
425 2.7069201429585896e-05
426 2.6946865534840844e-05
427 2.682539144138525e-05
428 2.6704770942164725e-05
429 2.6584995923698103e-05
430 2.646605836506309e-05
431 2.6347950336551346e-05
432 2.623066399811113e-05
433 2.6114191599194177e-05
434 2.5998525477078263e-05
435 2.5883658055205677e-05
436 2.576958184305491e-05
437 2.5656289435122414e-05
438 2.55437735086648e-05
439 2.5432026824209496e-05
440 2.5321042223482764e-05
441 2.5210812628649038e-05
442 2.510133104195049e-05
443 2.49925905435506e-05
444 2.4884584291596986e-05
445 2.4777305520981795e-05
446 2.4670747542196848e-05
447 2.4564903740471677e-05
448 2.4459767575088743e-05
449 2.435533257823795e-05
450 2.425159235469608e-05
451 2.4148540579795022e-05
452 2.4046170999518165e-05
453 2.394447742983963e-05
454 2.3843453754967748e-05
455 2.3743093927078632e-05
456 2.3643391965796284e-05
457 2.3544341956438816e-05
458 2.344593804996422e-05
459 2.334817446267058e-05
460 2.325104547381606e-05
461 2.3154545426461227e-05
462 2.305866872575194e-05
463 2.296340983879541e-05
464 2.2868763293207308e-05
465 2.277472367746864e-05
466 2.268128563835405e-05
467 2.258844388293924e-05
468 2.2496193175403455e-05
469 2.2404528337388106e-05
470 2.2313444247272003e-05
471 2.222293583973429e-05
472 2.2132998104633913e-05
473 2.2043626086752946e-05
474 2.1954814884690426e-05
475 2.186655965029583e-05
476 2.177885558857932e-05
477 2.1691697956803565e-05
478 2.1605082063627968e-05
479 2.1519003268355752e-05
480 2.143345698106814e-05
481 2.1348438661389442e-05
482 2.1263943818522807e-05
483 2.117996800944471e-05
484 2.1096506839530905e-05
485 2.101355596235732e-05
486 2.09311110769292e-05
487 2.0849167929877398e-05
488 2.076772231315449e-05
489 2.068677006372242e-05
490 2.0606307063637835e-05
491 2.052632923897672e-05
492 2.0446832559305735e-05
493 2.0367813037903353e-05
494 2.0289266730291417e-05
495 2.0211189734215552e-05
496 2.0133578189212245e-05
497 2.005642827561046e-05
498 1.997973621507983e-05
499 1.9903498268627522e-05
500 1.9827710738058114e-05
501 1.9752369963526557e-05
502 1.9677472324624977e-05
503 1.9603014238661603e-05
504 1.9528992161649045e-05
505 1.9455402586197773e-05
506 1.9382242042875758e-05
507 1.930950709800781e-05
508 1.9237194354472893e-05
509 1.9165300451012336e-05
510 1.9093822061077744e-05
511 1.902275589406801e-05
512 1.8952098692437575e-05
513 1.8881847234265323e-05
514 1.8811998330204187e-05
515 1.874254882455587e-05
516 1.8673495594749425e-05
517 1.8604835550500222e-05
518 1.8536565633388692e-05
519 1.8468682817230658e-05
520 1.8401184106931295e-05
521 1.83340665386808e-05
522 1.826732717900934e-05
523 1.8200963124899622e-05
524 1.8134971503255304e-05
525 1.8069349470456282e-05
526 1.8004094212157494e-05
527 1.79392029432393e-05
528 1.7874672906330102e-05
529 1.7810501373333388e-05
530 1.7746685643221668e-05
531 1.7683223042732368e-05
532 1.7620110926231163e-05
533 1.755734667408217e-05
534 1.7494927694194083e-05
535 1.7432851420588026e-05
536 1.737111531280222e-05
537 1.7309716856330477e-05
538 1.7248653561906967e-05
539 1.7187922965559584e-05
540 1.712752262806255e-05
541 1.706745013452319e-05
542 1.7007703094190316e-05
543 1.6948279140531434e-05
544 1.6889175930308106e-05
545 1.683039114394087e-05
546 1.6771922484498358e-05
547 1.6713767678457113e-05
548 1.665592447416259e-05
549 1.6598390642832073e-05
550 1.6541163977262913e-05
551 1.6484242292371977e-05
552 1.6427623424163737e-05
553 1.6371305230238118e-05
554 1.6315285588992575e-05
555 1.6259562399579074e-05
556 1.6204133581914874e-05
557 1.6148997075790373e-05
558 1.6094150841232848e-05
559 1.6039592858039964e-05
560 1.5985321125451785e-05
561 1.5931333662297892e-05
562 1.587762850613869e-05
563 1.5824203713862774e-05
564 1.5771057360370538e-05
565 1.5718187539615576e-05
566 1.5665592363501993e-05
567 1.5613269962171813e-05
568 1.5561218483129645e-05
569 1.5509436091581723e-05
570 1.5457920970286783e-05
571 1.5406671319316313e-05
572 1.5355685355160107e-05
573 1.5304961311527974e-05
574 1.5254497438768054e-05
575 1.5204292003143784e-05
576 1.5154343287618857e-05
577 1.5104649590498453e-05
578 1.5055209227040564e-05
579 1.5006020526701205e-05
580 1.4957081835417826e-05
581 1.4908391513867369e-05
582 1.4859947938205207e-05
583 1.4811749499219191e-05
584 1.4763794602240742e-05
585 1.4716081667723742e-05
586 1.4668609129910414e-05
587 1.462137543773367e-05
588 1.4574379053796089e-05
589 1.45276184549369e-05
590 1.4481092131656698e-05
591 1.4434798587622943e-05
592 1.4388736340228519e-05
593 1.434290392026794e-05
594 1.4297299871474552e-05
595 1.4251922750230454e-05
596 1.4206771126419493e-05
597 1.41618435815801e-05
598 1.411713871095527e-05
599 1.4072655120844664e-05
600 1.4028391430960267e-05
601 1.3984346272337191e-05
602 1.3940518288014469e-05
603 1.3896906132921918e-05
604 1.3853508473810751e-05
605 1.3810323988576956e-05
606 1.3767351366780132e-05
607 1.3724589309329157e-05
608 1.3682036527882993e-05
609 1.3639691745451198e-05
610 1.3597553695649464e-05
611 1.3555621122782117e-05
612 1.3513892782148314e-05
613 1.3472367439221704e-05
614 1.3431043870001924e-05
615 1.3389920860668033e-05
616 1.3348997207726503e-05
617 1.3308271717065782e-05
618 1.326774320530532e-05
619 1.3227410498421127e-05
620 1.3187272432170867e-05
621 1.3147327851638214e-05
622 1.3107575611990244e-05
623 1.3068014576915939e-05
624 1.302864362023947e-05
625 1.2989461623909998e-05
626 1.2950467479782528e-05
627 1.2911660088249477e-05
628 1.287303835857329e-05
629 1.2834601209111205e-05
630 1.2796347566112612e-05
631 1.27582763648758e-05
632 1.2720386549086519e-05
633 1.2682677070698898e-05
634 1.2645146889971903e-05
635 1.2607794975393455e-05
636 1.2570620303199785e-05
637 1.2533621858170647e-05
638 1.2496798632193987e-05
639 1.2460149625499928e-05
640 1.2423673846327784e-05
641 1.2387370309600126e-05
642 1.2351238038462877e-05
643 1.2315276063591686e-05
644 1.2279483422545264e-05
645 1.2243859160453449e-05
646 1.220840232982031e-05
647 1.2173111989917674e-05
648 1.213798720734746e-05
649 1.2103027055549054e-05
650 1.2068230614992154e-05
651 1.2033596972538881e-05
652 1.1999125222694432e-05
653 1.1964814465773912e-05
654 1.1930663808863291e-05
655 1.1896672365946015e-05
656 1.1862839257181511e-05
657 1.1829163609077168e-05
658 1.1795644554588932e-05
659 1.1762281232928022e-05
660 1.1729072789511796e-05
661 1.1696018375722411e-05
662 1.1663117149183176e-05
663 1.16303682731147e-05
664 1.1597770917155965e-05
665 1.1565324256811624e-05
666 1.1533027472659477e-05
667 1.1500879751816432e-05
668 1.1468880286909278e-05
669 1.1437028275856328e-05
670 1.1405322922168291e-05
671 1.1373763435264922e-05
672 1.1342349029821246e-05
673 1.1311078925373238e-05
674 1.1279952347657884e-05
675 1.1248968527032344e-05
676 1.1218126699355673e-05
677 1.118742610546204e-05
678 1.1156865991577103e-05
679 1.112644560884959e-05
680 1.1096164212939255e-05
681 1.1066021065582916e-05
682 1.1036015432227855e-05
683 1.1006146583815985e-05
684 1.097641379608302e-05
685 1.0946816349177147e-05
686 1.091735352852057e-05
687 1.0888024623667475e-05
688 1.0858828928681118e-05
689 1.082976574279906e-05
690 1.080083436914141e-05
691 1.0772034116125557e-05
692 1.0743364295613182e-05
693 1.0714824224291426e-05
694 1.0686413223457827e-05
695 1.0658130618346563e-05
696 1.062997573841065e-05
697 1.0601947917805999e-05
698 1.0574046494042229e-05
699 1.0546270809691763e-05
700 1.05186202108243e-05
701 1.0491094047450414e-05
702 1.0463691674168463e-05
703 1.0436412449142786e-05
704 1.0409255734535167e-05
705 1.0382220896409813e-05
706 1.0355307304639436e-05
707 1.0328514333153411e-05
708 1.0301841359561889e-05
709 1.0275287765000856e-05
710 1.0248852934430443e-05
711 1.0222536256949207e-05
712 1.0196337124818935e-05
713 1.017025493381675e-05
714 1.0144289083594072e-05
715 1.0118438977497577e-05
716 1.0092704021845644e-05
717 1.0067083627054827e-05
718 1.0041577206448532e-05
719 1.0016184177338411e-05
720 9.99090395990399e-06
721 9.965735978028406e-06
722 9.940679658485484e-06
723 9.915734432187091e-06
724 9.89089973239164e-06
725 9.866174996281682e-06
726 9.8415596636561e-06
727 9.817053178263299e-06
728 9.792654986005007e-06
729 9.768364537204527e-06
730 9.744181284134519e-06
731 9.72010468249466e-06
732 9.696134191375243e-06
733 9.672269272541417e-06
734 9.64850939098143e-06
735 9.624854014276108e-06
736 9.60130261360224e-06
737 9.577854662254671e-06
738 9.554509636983538e-06
739 9.531267017573114e-06
740 9.508126286173023e-06
741 9.485086927750605e-06
742 9.46214843067951e-06
743 9.439310285468223e-06
744 9.416571985738748e-06
745 9.39393302799074e-06
746 9.371392910799608e-06
747 9.348951135974474e-06
748 9.326607208062108e-06
749 9.304360633853849e-06
750 9.282210923346479e-06
751 9.260157588278523e-06
752 9.238200143768451e-06
753 9.216338107622892e-06
754 9.194570999006318e-06
755 9.172898341220917e-06
756 9.151319658507517e-06
757 9.129834479209422e-06
758 9.108442332684429e-06
759 9.087142751635741e-06
760 9.065935270834756e-06
761 9.044819427705342e-06
762 9.023794761848877e-06
763 9.002860815377632e-06
764 8.982017132872527e-06
765 8.96126326097347e-06
766 8.94059874886668e-06
767 8.920023147988979e-06
768 8.899536012186577e-06
769 8.87913689733281e-06
770 8.858825361938382e-06
771 8.838600966290474e-06
772 8.81846327331431e-06
773 8.798411848229714e-06
774 8.778446257997267e-06
775 8.758566071925653e-06
776 8.738770861897645e-06
777 8.719060201402346e-06
778 8.699433666453436e-06
779 8.679890835055055e-06
780 8.660431287201785e-06
781 8.641054605411288e-06
782 8.621760373654153e-06
783 8.602548178502662e-06
784 8.583417608436873e-06
785 8.564368253809995e-06
786 8.545399707394043e-06
787 8.526511563496865e-06
788 8.507703418839517e-06
789 8.488974871940959e-06
790 8.470325523280472e-06
791 8.451754975426974e-06
792 8.43326283280308e-06
793 8.414848701986293e-06
794 8.396512191097092e-06
795 8.378252910463136e-06
796 8.360070472492484e-06
797 8.341964490959264e-06
798 8.323934581915472e-06
799 8.305980363261894e-06
800 8.288101454605138e-06
801 8.270297477635522e-06
802 8.252568055797921e-06
803 8.234912814029178e-06
804 8.217331379585889e-06
805 8.199823381264671e-06
806 8.18238844998865e-06
807 8.165026217827816e-06
808 8.14773631921319e-06
809 8.130518389957952e-06
810 8.113372068091931e-06
811 8.096296992808622e-06
812 8.079292805691289e-06
813 8.062359149407852e-06
814 8.045495668774717e-06
815 8.028702010430378e-06
816 8.011977821910822e-06
817 7.99532275368432e-06
818 7.978736456730339e-06
819 7.962218584342732e-06
820 7.945768791263494e-06
821 7.929386734255322e-06
822 7.913072071065977e-06
823 7.896824461598229e-06
824 7.88064356735793e-06
825 7.864529051120686e-06
826 7.848480577593572e-06
827 7.832497813054817e-06
828 7.81658042513362e-06
829 7.80072808362161e-06
830 7.784940459030034e-06
831 7.769217224255876e-06
832 7.753558053107397e-06
833 7.737962621437974e-06
834 7.722430606544758e-06
835 7.706961687203875e-06
836 7.69155554334946e-06
837 7.676211857147384e-06
838 7.660930311898113e-06
839 7.645710592258274e-06
840 7.630552384563734e-06
841 7.615455376916164e-06
842 7.600419258507566e-06
843 7.585443719864708e-06
844 7.57052845376532e-06
845 7.555673153601128e-06
846 7.540877514582613e-06
847 7.52614123350771e-06
848 7.511464008552203e-06
849 7.496845539088739e-06
850 7.4822855260438786e-06
851 7.467783671803136e-06
852 7.453339680312035e-06
853 7.438953256961007e-06
854 7.424624108115952e-06
855 7.410351941773329e-06
856 7.39613646747889e-06
857 7.381977396210329e-06
858 7.367874439958389e-06
859 7.353827312165091e-06
860 7.3398357280339826e-06
861 7.325899403764916e-06
862 7.312018056854275e-06
863 7.298191406549539e-06
864 7.284419173027578e-06
865 7.270701077995575e-06
866 7.2570368446261754e-06
867 7.243426196986995e-06
868 7.229868860989221e-06
869 7.216364563542271e-06
870 7.202913032743887e-06
871 7.189513998451483e-06
872 7.176167191365908e-06
873 7.162872343613053e-06
874 7.149629188865417e-06
875 7.136437461686813e-06
876 7.123296898166505e-06
877 7.110207235507343e-06
878 7.0971682125186034e-06
879 7.084179568729247e-06
880 7.071241045047682e-06
881 7.058352384121215e-06
882 7.04551332949989e-06
883 7.032723625870925e-06
884 7.019983019140313e-06
885 7.007291256649253e-06
886 6.994648086927218e-06
887 6.982053259604485e-06
888 6.969506525452799e-06
889 6.957007636848872e-06
890 6.944556346831603e-06
891 6.9321524100825114e-06
892 6.919795582075692e-06
893 6.9074856199951705e-06
894 6.895222281675481e-06
895 6.883005326387024e-06
896 6.870834514457547e-06
897 6.858709607879071e-06
898 6.846630368685909e-06
899 6.834596561365314e-06
900 6.822607950793152e-06
901 6.810664303057348e-06
902 6.7987653854834095e-06
903 6.786910966759079e-06
904 6.775100816245804e-06
905 6.763334705012792e-06
906 6.751612404520249e-06
907 6.739933687954716e-06
908 6.728298329513736e-06
909 6.71670610410678e-06
910 6.705156788391573e-06
911 6.6936501596150875e-06
912 6.682185996337471e-06
913 6.6707640781136024e-06
914 6.65938418556894e-06
915 6.6480461007104545e-06
916 6.636749606315951e-06
917 6.625494486165895e-06
918 6.61428052535905e-06
919 6.603107510074993e-06
920 6.591975227319996e-06
921 6.580883465167511e-06
922 6.56983201331937e-06
923 6.558820661618003e-06
924 6.547849201675339e-06
925 6.536917425720822e-06
926 6.526025127064184e-06
927 6.515172100389419e-06
928 6.504358141037644e-06
929 6.493583045707976e-06
930 6.482846611795463e-06
931 6.472148637754409e-06
932 6.461488923080843e-06
933 6.45086726852769e-06
934 6.44028347571787e-06
935 6.429737346954438e-06
936 6.41922868593869e-06
937 6.408757297243865e-06
938 6.3983229862366334e-06
939 6.387925559809143e-06
940 6.3775648249479874e-06
941 6.367240590482351e-06
942 6.356952665849651e-06
943 6.346700861209411e-06
944 6.336484988075849e-06
945 6.326304858943617e-06
946 6.3161602868576555e-06
947 6.306051086237294e-06
948 6.295977072217582e-06
949 6.285938060687733e-06
950 6.275933869161764e-06
951 6.2659643153377265e-06
952 6.256029217949189e-06
953 6.246128397545235e-06
954 6.2362616744623136e-06
955 6.226428870267108e-06
956 6.216629807920992e-06
957 6.206864310801541e-06
958 6.197132203441641e-06
959 6.187433311051125e-06
960 6.177767459900057e-06
961 6.1681344775476795e-06
962 6.1585341914492456e-06
963 6.148966431033999e-06
964 6.139431025746148e-06
965 6.129927806543413e-06
966 6.1204566047762504e-06
967 6.111017253320076e-06
968 6.101609585152904e-06
969 6.092233434712844e-06
970 6.082888636787346e-06
971 6.073575027576291e-06
972 6.06429244391476e-06
973 6.055040722978708e-06
974 6.045819703672719e-06
975 6.03662922535716e-06
976 6.027469128012173e-06
977 6.018339252604219e-06
978 6.009239441461313e-06
979 6.000169536788297e-06
980 5.9911293823762726e-06
981 5.9821188223342415e-06
982 5.973137702006557e-06
983 5.964185867302923e-06
984 5.9552631650955585e-06
985 5.946369442889035e-06
986 5.937504549188359e-06
987 5.928668333181721e-06
988 5.919860644805362e-06
989 5.911081335142882e-06
990 5.902330255511004e-06
991 5.893607258543334e-06
992 5.8849121973271125e-06
993 5.876244925727668e-06
994 5.867605298741924e-06
995 5.858993171673671e-06
996 5.850408400919306e-06
997 5.841850843516351e-06
998 5.833320357601456e-06
999 5.824816801222191e-06
1000 5.816340034023366e-06
1001 5.807889916361413e-06
1002 5.799466308918321e-06
1003 5.791069073054983e-06
1004 5.782698071443115e-06
1005 5.77435316731148e-06
1006 5.766034224079135e-06
1007 5.757741106699605e-06
1008 5.749473680429788e-06
1009 5.741231811180058e-06
1010 5.733015365910611e-06
1011 5.724824211922457e-06
1012 5.7166582176631525e-06
1013 5.708517252040682e-06
1014 5.700401184325704e-06
1015 5.69230988526589e-06
1016 5.684243225999158e-06
1017 5.676201078147795e-06
1018 5.668183313847259e-06
1019 5.660189806895891e-06
1020 5.652220430683997e-06
1021 5.644275060179518e-06
1022 5.636353570249637e-06
1023 5.628455836859095e-06
1024 5.6205817368427815e-06
1025 5.612731147454173e-06
1026 5.604903946423505e-06
1027 5.597100012667923e-06
1028 5.589319225395574e-06
1029 5.581561464469422e-06
1030 5.573826610529787e-06
1031 5.5661145450149e-06
1032 5.5584251499502495e-06
1033 5.550758307651665e-06
1034 5.543113901730441e-06
1035 5.5354918156971855e-06
1036 5.527891934208257e-06
1037 5.5203141428106505e-06
1038 5.512758326926792e-06
1039 5.505224373167772e-06
1040 5.497712168725738e-06
1041 5.490221600942347e-06
1042 5.482752558731406e-06
1043 5.475304930685589e-06
1044 5.467878606459769e-06
1045 5.460473476577151e-06
1046 5.453089431261127e-06
1047 5.445726362496642e-06
1048 5.438384162002954e-06
1049 5.431062722687788e-06
1050 5.4237619376152525e-06
1051 5.416481700769251e-06
1052 5.409221906458739e-06
1053 5.401982449986247e-06
1054 5.394763226558573e-06
1055 5.3875641329126126e-06
1056 5.380385065537608e-06
1057 5.373225922098382e-06
1058 5.3660866001844624e-06
1059 5.358966998627721e-06
1060 5.35186701643475e-06
1061 5.344786553350415e-06
1062 5.337725509715741e-06
1063 5.330683786456676e-06
1064 5.32366128471051e-06
1065 5.316657906437895e-06
1066 5.309673554358551e-06
1067 5.302708131391745e-06
1068 5.2957615412487764e-06
1069 5.288833687891011e-06
1070 5.281924476316451e-06
1071 5.275033811803969e-06
1072 5.26816159981911e-06
1073 5.261307747048738e-06
1074 5.254472160076534e-06
1075 5.247654746671513e-06
1076 5.240855414339559e-06
1077 5.234074071732288e-06
1078 5.227310628068444e-06
1079 5.220564992563717e-06
1080 5.2138370753715526e-06
1081 5.2071267869778835e-06
1082 5.200434038581999e-06
1083 5.193758741629508e-06
1084 5.1871008082100864e-06
1085 5.180460150852706e-06
1086 5.173836682825482e-06
1087 5.167230317580854e-06
1088 5.160640969300699e-06
1089 5.154068552517993e-06
1090 5.147512982256051e-06
1091 5.140974174454449e-06
1092 5.134452044630857e-06
1093 5.127946509619643e-06
1094 5.121457486508027e-06
1095 5.114984892612027e-06
1096 5.108528646127784e-06
1097 5.102088665489683e-06
1098 5.095664869409189e-06
1099 5.0892571775399485e-06
1100 5.082865509820564e-06
1101 5.076489786255381e-06
1102 5.070129927889599e-06
1103 5.063785856138247e-06
1104 5.057457492367439e-06
1105 5.051144759018456e-06
1106 5.044847578606625e-06
1107 5.03856587447378e-06
1108 5.032299569778816e-06
1109 5.026048588700752e-06
1110 5.019812855813419e-06
1111 5.013592295654361e-06
1112 5.0073868337871855e-06
1113 5.001196395885462e-06
1114 4.995020908126954e-06
1115 4.988860297117113e-06
1116 4.98271448994139e-06
1117 4.976583414120894e-06
1118 4.970466997452982e-06
1119 4.964365168241459e-06
1120 4.95827785539723e-06
1121 4.952204987859592e-06
1122 4.94614649538386e-06
1123 4.94010230793108e-06
1124 4.934072355941044e-06
1125 4.928056570115058e-06
1126 4.922054881818175e-06
1127 4.916067222482505e-06
1128 4.910093524175678e-06
1129 4.904133719386684e-06
1130 4.898187741261751e-06
1131 4.892255522537893e-06
1132 4.886336997089826e-06
1133 4.8804320989207384e-06
1134 4.874540762212419e-06
1135 4.868662922123402e-06
1136 4.8627985136351395e-06
1137 4.856947472231712e-06
1138 4.851109733992556e-06
1139 4.845285235298593e-06